LAMMPS data file. msi2lmp v3.9.9 / 05 Nov 2018 / CGCMM for 9-2

  26880 atoms
      0 bonds
      0 angles
      0 dihedrals
      0 impropers

   9 atom types

     0.641767020    59.030867020 xlo xhi
    -0.645758786    58.306241214 ylo yhi
    -0.194060738   100.525939262 zlo zhi

Masses

   1  40.079800 # ca+
   2  28.086000 # sz
   3  26.982000 # az
   4  15.999400 # o
   5  15.999400 # oz
   6  15.999400 # oh
   7  15.999400 # o*
   8   1.007970 # h*
   9   1.007970 # ho

Atoms # full

      1      1   1  0.000000    57.031258629     2.116451846    90.805735993   0   0   0 # ca+
      2      1   1  0.000000    55.425459263    57.353079260    94.509379993   0   0   0 # ca+
      3      1   1  0.000000    54.292948131     3.938937216    88.837111993   0   0   0 # ca+
      4      1   2  0.000000    54.247873061    -0.018213616    91.951075993   0   1   0 # sz
      5      1   3  0.000000    53.380177966     2.118838106    93.894751993   0   1   0 # az
      6      1   2  0.000000    54.242238678     4.244753155    91.910251993   0   1   0 # sz
      7      1   4  0.000000    54.230969910     0.796061697    93.416203993   0   1   0 # o
      8      1   5  0.000000    54.298582515    57.389978446    92.570239993   0   0   0 # oz
      9      1   4  0.000000    52.946330418     0.191865468    90.993979993   0   1   0 # o
     10      1   4  0.000000    55.571953240     0.265429216    91.161811993   0   1   0 # o
     11      1   6  0.000000    51.819453670     2.107859653    93.393523993   0   1   0 # oh
     12      1   5  0.000000    54.259141829     3.378894842    93.368575993   0   1   0 # oz
     13      1   4  0.000000    55.566318857     3.902030987    91.066555993   0   1   0 # o
     14      1   4  0.000000    52.935061650    55.569901010    90.975835993   0   0   0 # o
     15      1   7  0.000000    56.152294766     0.048015811    73.416979993   0   0   0 # o*
     16      1   7  0.000000    56.169197917     4.089911498    73.348939993   0   0   0 # o*
     17      1   8  0.000000    56.539207897     4.829925531    94.290971593   0   0   0 # h*
     18      1   8  0.000000    55.059224320     4.089964871    95.031019993   0   0   0 # h*
     19      1   8  0.000000    56.522304746     0.788029844    94.222931593   0   0   0 # h*
     20      1   8  0.000000    55.042321169     0.048069183    94.962979993   0   0   0 # h*
     21      1   8  0.000000    54.516464134     1.046041294    85.581851593   0   0   0 # h*
     22      1   8  0.000000    53.036480557     0.306080633    86.321899993   0   0   0 # h*
     23      1   1  0.000000    54.214066759     0.274337309    79.465735993   0   0   0 # ca+
     24      1   1  0.000000    57.110140001     5.781051754    77.497111993   0   0   0 # ca+
     25      1   2  0.000000    57.065064931     1.823900921    80.611075993   0   1   0 # sz
     26      1   2  0.000000    57.059430548     6.086867692    80.570251993   0   0   0 # sz
     27      1   6  0.000000    57.048161780     2.638176234    82.076203993   0   1   0 # oh
     28      1   5  0.000000    57.115774385     0.280092983    81.230239993   0   1   0 # oz
     29      1   4  0.000000    55.763522288     2.033980005    79.653979993   0   1   0 # o
     30      1   4  0.000000    58.389145110     2.107543753    79.821811993   0   1   0 # o
     31      1   6  0.000000    57.076333699     5.221009379    82.028575993   0   0   0 # oh
     32      1   4  0.000000    58.383510727     5.744145524    79.726555993   0   0   0 # o
     33      1   4  0.000000    55.752253520    57.412015547    79.635835993   0   0   0 # o
     34      1   7  0.000000    53.335102896    57.157901274    84.756979993   0   0   0 # o*
     35      1   7  0.000000    53.352006047     2.247796961    84.688939993   0   0   0 # o*
     36      1   8  0.000000    53.722016027     2.987810994    82.950971593   0   0   0 # h*
     37      1   8  0.000000    52.242032450     2.247850333    83.691019993   0   0   0 # h*
     38      1   8  0.000000    53.705112876    57.897915307    82.882931593   0   0   0 # h*
     39      1   8  0.000000    52.225129299    57.157954646    83.622979993   0   0   0 # h*
     40      1   1  0.000000    57.031258629     2.116451846    77.574223993   0   0   0 # ca+
     41      1   1  0.000000    54.292948131     3.938937216    79.542847993   0   0   0 # ca+
     42      1   2  0.000000    54.247873061    -0.018213616    76.428883993   0   1   0 # sz
     43      1   2  0.000000    54.242238678     4.244753155    76.469707993   0   0   0 # sz
     44      1   6  0.000000    54.230969910     0.796061697    74.963755993   0   1   0 # oh
     45      1   5  0.000000    54.298582515    57.389978446    75.809719993   0   0   0 # oz
     46      1   4  0.000000    52.946330418     0.191865468    77.385979993   0   1   0 # o
     47      1   4  0.000000    55.571953240     0.265429216    77.218147993   0   1   0 # o
     48      1   6  0.000000    54.259141829     3.378894842    75.011383993   0   0   0 # oh
     49      1   4  0.000000    55.566318857     3.902030987    77.313403993   0   0   0 # o
     50      1   4  0.000000    52.935061650    55.569901010    77.404123993   0   0   0 # o
     51      1   7  0.000000    56.152294766     0.048015811    94.962979993   0   0   0 # o*
     52      1   7  0.000000    56.169197917     4.089911498    95.031019993   0   0   0 # o*
     53      1   8  0.000000    56.539207897     4.829925531    74.088988393   0   0   0 # h*
     54      1   8  0.000000    55.059224320     4.089964871    73.348939993   0   0   0 # h*
     55      1   8  0.000000    56.522304746     0.788029844    74.157028393   0   0   0 # h*
     56      1   8  0.000000    55.042321169     0.048069183    73.416979993   0   0   0 # h*
     57      1   1  0.000000    54.214066759     0.274337309    88.914223993   0   0   0 # ca+
     58      1   1  0.000000    58.242651133     0.243193797    85.210579993   0   0   0 # ca+
     59      1   1  0.000000    57.110140001     5.781051754    90.882847993   0   0   0 # ca+
     60      1   2  0.000000    57.065064931     1.823900921    87.768883993   0   0   0 # sz
     61      1   2  0.000000    56.197369836     3.960952644    85.825207993   0   0   0 # sz
     62      1   2  0.000000    57.059430548     6.086867692    87.809707993   0   0   0 # sz
     63      1   5  0.000000    57.048161780     2.638176234    86.303755993   0   0   0 # oz
     64      1   5  0.000000    57.115774385     0.280092983    87.149719993   0   0   0 # oz
     65      1   4  0.000000    55.763522288     2.033980005    88.725979993   0   0   0 # o
     66      1   4  0.000000    58.389145110     2.107543753    88.558147993   0   0   0 # o
     67      1   4  0.000000    54.636645540     3.949974190    86.326435993   0   0   0 # o
     68      1   7  0.000000    54.146454154     0.306027261    86.321899993   0   0   0 # o*
     69      1   5  0.000000    57.076333699     5.221009379    86.351383993   0   0   0 # oz
     70      1   4  0.000000    58.383510727     5.744145524    88.653403993   0   0   0 # o
     71      1   4  0.000000    55.752253520    57.412015547    88.744123993   0  -1   0 # o
     72      1   7  0.000000    53.335102896    57.157901274    83.622979993   0   0   0 # o*
     73      1   7  0.000000    53.352006047     2.247796961    83.691019993   0   0   0 # o*
     74      1   8  0.000000    53.722016027     2.987810994    85.428988393   0   0   0 # h*
     75      1   8  0.000000    52.242032450     2.247850333    84.688939993   0   0   0 # h*
     76      1   8  0.000000    53.705112876    57.897915307    85.497028393   0   0   0 # h*
     77      1   8  0.000000    52.225129299    57.157954646    84.756979993   0   0   0 # h*
     78      1   4  0.000000    56.281885592     3.994109080    84.189979993   0   0   0 # o
     79      1   1  0.000000    57.031258629     9.485451846    90.805735993   0   0   0 # ca+
     80      1   1  0.000000    54.292948131    11.307937216    88.837111993   0   0   0 # ca+
     81      1   2  0.000000    54.247873061     7.350786384    91.951075993   0   1   0 # sz
     82      1   2  0.000000    54.242238678    11.613753155    91.910251993   0   0   0 # sz
     83      1   6  0.000000    54.230969910     8.165061697    93.416203993   0   1   0 # oh
     84      1   5  0.000000    54.298582515     5.806978446    92.570239993   0   1   0 # oz
     85      1   4  0.000000    52.946330418     7.560865468    90.993979993   0   1   0 # o
     86      1   4  0.000000    55.571953240     7.634429216    91.161811993   0   1   0 # o
     87      1   6  0.000000    54.259141829    10.747894842    93.368575993   0   0   0 # oh
     88      1   4  0.000000    55.566318857    11.271030987    91.066555993   0   0   0 # o
     89      1   4  0.000000    52.935061650     3.986901010    90.975835993   0   1   0 # o
     90      1   7  0.000000    56.152294766     7.417015811    73.416979993   0   0   0 # o*
     91      1   7  0.000000    56.169197917    11.458911498    73.348939993   0   0   0 # o*
     92      1   8  0.000000    56.539207897    12.198925531    94.290971593   0   0   0 # h*
     93      1   8  0.000000    55.059224320    11.458964871    95.031019993   0   0   0 # h*
     94      1   8  0.000000    56.522304746     8.157029844    94.222931593   0   0   0 # h*
     95      1   8  0.000000    55.042321169     7.417069183    94.962979993   0   0   0 # h*
     96      1   1  0.000000    54.214066759     7.643337309    79.465735993   0   0   0 # ca+
     97      1   1  0.000000    58.242651133     7.612193797    83.169379993   0   0   0 # ca+
     98      1   1  0.000000    57.110140001    13.150051754    77.497111993   0   0   0 # ca+
     99      1   2  0.000000    57.065064931     9.192900921    80.611075993   0   0   0 # sz
    100      1   2  0.000000    56.197369836    11.329952644    82.554751993   0   0   0 # sz
    101      1   2  0.000000    57.059430548    13.455867692    80.570251993   0   0   0 # sz
    102      1   5  0.000000    57.048161780    10.007176234    82.076203993   0   0   0 # oz
    103      1   5  0.000000    57.115774385     7.649092983    81.230239993   0   0   0 # oz
    104      1   4  0.000000    55.763522288     9.402980005    79.653979993   0   0   0 # o
    105      1   4  0.000000    58.389145110     9.476543753    79.821811993   0   0   0 # o
    106      1   4  0.000000    54.636645540    11.318974190    82.053523993   0   0   0 # o
    107      1   7  0.000000    54.146454154     7.675027261    82.058059993   0   0   0 # o*
    108      1   5  0.000000    57.076333699    12.590009379    82.028575993   0   0   0 # oz
    109      1   4  0.000000    58.383510727    13.113145524    79.726555993   0   0   0 # o
    110      1   4  0.000000    55.752253520     5.829015547    79.635835993   0   0   0 # o
    111      1   7  0.000000    53.335102896     5.574901274    84.756979993   0   0   0 # o*
    112      1   7  0.000000    53.352006047     9.616796961    84.688939993   0   0   0 # o*
    113      1   8  0.000000    53.722016027    10.356810994    82.950971593   0   0   0 # h*
    114      1   8  0.000000    52.242032450     9.616850333    83.691019993   0   0   0 # h*
    115      1   8  0.000000    53.705112876     6.314915307    82.882931593   0   0   0 # h*
    116      1   8  0.000000    52.225129299     5.574954646    83.622979993   0   0   0 # h*
    117      1   1  0.000000    57.031258629     9.485451846    77.574223993   0   0   0 # ca+
    118      1   1  0.000000    54.292948131    11.307937216    79.542847993   0   0   0 # ca+
    119      1   2  0.000000    54.247873061     7.350786384    76.428883993   0   0   0 # sz
    120      1   3  0.000000    53.380177966     9.487838106    74.485207993   0   0   0 # az
    121      1   2  0.000000    54.242238678    11.613753155    76.469707993   0   0   0 # sz
    122      1   4  0.000000    54.230969910     8.165061697    74.963755993   0   0   0 # o
    123      1   5  0.000000    54.298582515     5.806978446    75.809719993   0   0   0 # oz
    124      1   4  0.000000    52.946330418     7.560865468    77.385979993   0   0   0 # o
    125      1   4  0.000000    55.571953240     7.634429216    77.218147993   0   0   0 # o
    126      1   6  0.000000    51.819453670     9.476859653    74.986435993   0   0   0 # oh
    127      1   5  0.000000    54.259141829    10.747894842    75.011383993   0   0   0 # oz
    128      1   4  0.000000    55.566318857    11.271030987    77.313403993   0   0   0 # o
    129      1   4  0.000000    52.935061650     3.986901010    77.404123993   0   0   0 # o
    130      1   7  0.000000    56.152294766     7.417015811    94.962979993   0   0   0 # o*
    131      1   7  0.000000    56.169197917    11.458911498    95.031019993   0   0   0 # o*
    132      1   8  0.000000    56.539207897    12.198925531    74.088988393   0   0   0 # h*
    133      1   8  0.000000    55.059224320    11.458964871    73.348939993   0   0   0 # h*
    134      1   8  0.000000    56.522304746     8.157029844    74.157028393   0   0   0 # h*
    135      1   8  0.000000    55.042321169     7.417069183    73.416979993   0   0   0 # h*
    136      1   8  0.000000    54.516464134     8.415041294    82.798108393   0   0   0 # h*
    137      1   8  0.000000    53.036480557     7.675080633    82.058059993   0   0   0 # h*
    138      1   1  0.000000    54.214066759     7.643337309    88.914223993   0   0   0 # ca+
    139      1   1  0.000000    57.110140001    13.150051754    90.882847993   0   0   0 # ca+
    140      1   2  0.000000    57.065064931     9.192900921    87.768883993   0   0   0 # sz
    141      1   2  0.000000    57.059430548    13.455867692    87.809707993   0   0   0 # sz
    142      1   6  0.000000    57.048161780    10.007176234    86.303755993   0   0   0 # oh
    143      1   5  0.000000    57.115774385     7.649092983    87.149719993   0   0   0 # oz
    144      1   4  0.000000    55.763522288     9.402980005    88.725979993   0   0   0 # o
    145      1   4  0.000000    58.389145110     9.476543753    88.558147993   0   0   0 # o
    146      1   6  0.000000    57.076333699    12.590009379    86.351383993   0   0   0 # oh
    147      1   4  0.000000    58.383510727    13.113145524    88.653403993   0   0   0 # o
    148      1   4  0.000000    55.752253520     5.829015547    88.744123993   0   0   0 # o
    149      1   7  0.000000    53.335102896     5.574901274    83.622979993   0   0   0 # o*
    150      1   7  0.000000    53.352006047     9.616796961    83.691019993   0   0   0 # o*
    151      1   8  0.000000    53.722016027    10.356810994    85.428988393   0   0   0 # h*
    152      1   8  0.000000    52.242032450     9.616850333    84.688939993   0   0   0 # h*
    153      1   8  0.000000    53.705112876     6.314915307    85.497028393   0   0   0 # h*
    154      1   8  0.000000    52.225129299     5.574954646    84.756979993   0   0   0 # h*
    155      1   4  0.000000    56.281885592    11.363109080    84.189979993   0   0   0 # o
    156      1   1  0.000000    57.031258629    16.854451846    90.805735993   0   0   0 # ca+
    157      1   1  0.000000    54.292948131    18.676937216    88.837111993   0   0   0 # ca+
    158      1   2  0.000000    54.247873061    14.719786384    91.951075993   0   0   0 # sz
    159      1   2  0.000000    54.242238678    18.982753155    91.910251993   0   0   0 # sz
    160      1   6  0.000000    54.230969910    15.534061697    93.416203993   0   0   0 # oh
    161      1   5  0.000000    54.298582515    13.175978446    92.570239993   0   0   0 # oz
    162      1   4  0.000000    52.946330418    14.929865468    90.993979993   0   0   0 # o
    163      1   4  0.000000    55.571953240    15.003429216    91.161811993   0   0   0 # o
    164      1   6  0.000000    54.259141829    18.116894842    93.368575993   0   0   0 # oh
    165      1   4  0.000000    55.566318857    18.640030987    91.066555993   0   0   0 # o
    166      1   4  0.000000    52.935061650    11.355901010    90.975835993   0   0   0 # o
    167      1   7  0.000000    56.152294766    14.786015811    73.416979993   0   0   0 # o*
    168      1   7  0.000000    56.169197917    18.827911498    73.348939993   0   0   0 # o*
    169      1   8  0.000000    56.539207897    19.567925531    94.290971593   0   0   0 # h*
    170      1   8  0.000000    55.059224320    18.827964871    95.031019993   0   0   0 # h*
    171      1   8  0.000000    56.522304746    15.526029844    94.222931593   0   0   0 # h*
    172      1   8  0.000000    55.042321169    14.786069183    94.962979993   0   0   0 # h*
    173      1   8  0.000000    54.516464134    15.784041294    85.581851593   0   0   0 # h*
    174      1   8  0.000000    53.036480557    15.044080633    86.321899993   0   0   0 # h*
    175      1   1  0.000000    54.214066759    15.012337309    79.465735993   0   0   0 # ca+
    176      1   1  0.000000    57.110140001    20.519051754    77.497111993   0   0   0 # ca+
    177      1   2  0.000000    57.065064931    16.561900921    80.611075993   0   0   0 # sz
    178      1   2  0.000000    57.059430548    20.824867692    80.570251993   0   0   0 # sz
    179      1   6  0.000000    57.048161780    17.376176234    82.076203993   0   0   0 # oh
    180      1   5  0.000000    57.115774385    15.018092983    81.230239993   0   0   0 # oz
    181      1   4  0.000000    55.763522288    16.771980005    79.653979993   0   0   0 # o
    182      1   4  0.000000    58.389145110    16.845543753    79.821811993   0   0   0 # o
    183      1   6  0.000000    57.076333699    19.959009379    82.028575993   0   0   0 # oh
    184      1   4  0.000000    58.383510727    20.482145524    79.726555993   0   0   0 # o
    185      1   4  0.000000    55.752253520    13.198015547    79.635835993   0   0   0 # o
    186      1   7  0.000000    53.335102896    12.943901274    84.756979993   0   0   0 # o*
    187      1   7  0.000000    53.352006047    16.985796961    84.688939993   0   0   0 # o*
    188      1   8  0.000000    53.722016027    17.725810994    82.950971593   0   0   0 # h*
    189      1   8  0.000000    52.242032450    16.985850333    83.691019993   0   0   0 # h*
    190      1   8  0.000000    53.705112876    13.683915307    82.882931593   0   0   0 # h*
    191      1   8  0.000000    52.225129299    12.943954646    83.622979993   0   0   0 # h*
    192      1   8  0.000000    57.333656004    17.626155831    74.241851593   0   0   0 # h*
    193      1   8  0.000000    55.853672427    16.886195170    74.981899993   0   0   0 # h*
    194      1   1  0.000000    57.031258629    16.854451846    77.574223993   0   0   0 # ca+
    195      1   1  0.000000    54.292948131    18.676937216    79.542847993   0   0   0 # ca+
    196      1   2  0.000000    54.247873061    14.719786384    76.428883993   0   0   0 # sz
    197      1   2  0.000000    53.380177966    16.856838106    74.485207993   0   0   0 # sz
    198      1   2  0.000000    54.242238678    18.982753155    76.469707993   0   0   0 # sz
    199      1   5  0.000000    54.230969910    15.534061697    74.963755993   0   0   0 # oz
    200      1   5  0.000000    54.298582515    13.175978446    75.809719993   0   0   0 # oz
    201      1   4  0.000000    52.946330418    14.929865468    77.385979993   0   0   0 # o
    202      1   4  0.000000    55.571953240    15.003429216    77.218147993   0   0   0 # o
    203      1   4  0.000000    51.819453670    16.845859653    74.986435993   0   0   0 # o
    204      1   7  0.000000    56.963646024    16.886141798    74.981899993   0   0   0 # o*
    205      1   5  0.000000    54.259141829    18.116894842    75.011383993   0   0   0 # oz
    206      1   4  0.000000    55.566318857    18.640030987    77.313403993   0   0   0 # o
    207      1   4  0.000000    52.935061650    11.355901010    77.404123993   0   0   0 # o
    208      1   7  0.000000    56.152294766    14.786015811    94.962979993   0   0   0 # o*
    209      1   7  0.000000    56.169197917    18.827911498    95.031019993   0   0   0 # o*
    210      1   8  0.000000    56.539207897    19.567925531    74.088988393   0   0   0 # h*
    211      1   8  0.000000    55.059224320    18.827964871    73.348939993   0   0   0 # h*
    212      1   8  0.000000    56.522304746    15.526029844    74.157028393   0   0   0 # h*
    213      1   8  0.000000    55.042321169    14.786069183    73.416979993   0   0   0 # h*
    214      1   1  0.000000    54.214066759    15.012337309    88.914223993   0   0   0 # ca+
    215      1   1  0.000000    58.242651133    14.981193797    85.210579993   0   0   0 # ca+
    216      1   1  0.000000    57.110140001    20.519051754    90.882847993   0   0   0 # ca+
    217      1   2  0.000000    57.065064931    16.561900921    87.768883993   0   0   0 # sz
    218      1   3  0.000000    56.197369836    18.698952644    85.825207993   0   0   0 # az
    219      1   2  0.000000    57.059430548    20.824867692    87.809707993   0   0   0 # sz
    220      1   4  0.000000    57.048161780    17.376176234    86.303755993   0   0   0 # o
    221      1   5  0.000000    57.115774385    15.018092983    87.149719993   0   0   0 # oz
    222      1   4  0.000000    55.763522288    16.771980005    88.725979993   0   0   0 # o
    223      1   4  0.000000    58.389145110    16.845543753    88.558147993   0   0   0 # o
    224      1   6  0.000000    54.636645540    18.687974190    86.326435993   0   0   0 # oh
    225      1   7  0.000000    54.146454154    15.044027261    86.321899993   0   0   0 # o*
    226      1   5  0.000000    57.076333699    19.959009379    86.351383993   0   0   0 # oz
    227      1   4  0.000000    58.383510727    20.482145524    88.653403993   0   0   0 # o
    228      1   4  0.000000    55.752253520    13.198015547    88.744123993   0   0   0 # o
    229      1   7  0.000000    53.335102896    12.943901274    83.622979993   0   0   0 # o*
    230      1   7  0.000000    53.352006047    16.985796961    83.691019993   0   0   0 # o*
    231      1   8  0.000000    53.722016027    17.725810994    85.428988393   0   0   0 # h*
    232      1   8  0.000000    52.242032450    16.985850333    84.688939993   0   0   0 # h*
    233      1   8  0.000000    53.705112876    13.683915307    85.497028393   0   0   0 # h*
    234      1   8  0.000000    52.225129299    12.943954646    84.756979993   0   0   0 # h*
    235      1   4  0.000000    53.464693722    16.889994543    72.849979993   0   0   0 # o
    236      1   1  0.000000    57.031258629    24.223451846    90.805735993   0   0   0 # ca+
    237      1   1  0.000000    54.292948131    26.045937216    88.837111993   0   0   0 # ca+
    238      1   2  0.000000    54.247873061    22.088786384    91.951075993   0   0   0 # sz
    239      1   2  0.000000    53.380177966    24.225838106    93.894751993   0   0   0 # sz
    240      1   2  0.000000    54.242238678    26.351753155    91.910251993   0   0   0 # sz
    241      1   5  0.000000    54.230969910    22.903061697    93.416203993   0   0   0 # oz
    242      1   5  0.000000    54.298582515    20.544978446    92.570239993   0   0   0 # oz
    243      1   4  0.000000    52.946330418    22.298865468    90.993979993   0   0   0 # o
    244      1   4  0.000000    55.571953240    22.372429216    91.161811993   0   0   0 # o
    245      1   4  0.000000    51.819453670    24.214859653    93.393523993   0   0   0 # o
    246      1   7  0.000000    56.963646024    24.255141798    93.398059993   0   0   0 # o*
    247      1   5  0.000000    54.259141829    25.485894842    93.368575993   0   0   0 # oz
    248      1   4  0.000000    55.566318857    26.009030987    91.066555993   0   0   0 # o
    249      1   4  0.000000    52.935061650    18.724901010    90.975835993   0   0   0 # o
    250      1   7  0.000000    56.152294766    22.155015811    73.416979993   0   0   0 # o*
    251      1   7  0.000000    56.169197917    26.196911498    73.348939993   0   0   0 # o*
    252      1   8  0.000000    56.539207897    26.936925531    94.290971593   0   0   0 # h*
    253      1   8  0.000000    55.059224320    26.196964871    95.031019993   0   0   0 # h*
    254      1   8  0.000000    56.522304746    22.895029844    94.222931593   0   0   0 # h*
    255      1   8  0.000000    55.042321169    22.155069183    94.962979993   0   0   0 # h*
    256      1   1  0.000000    54.214066759    22.381337309    79.465735993   0   0   0 # ca+
    257      1   1  0.000000    58.242651133    22.350193797    83.169379993   0   0   0 # ca+
    258      1   1  0.000000    57.110140001    27.888051754    77.497111993   0   0   0 # ca+
    259      1   2  0.000000    57.065064931    23.930900921    80.611075993   0   0   0 # sz
    260      1   3  0.000000    56.197369836    26.067952644    82.554751993   0   0   0 # az
    261      1   2  0.000000    57.059430548    28.193867692    80.570251993   0   0   0 # sz
    262      1   4  0.000000    57.048161780    24.745176234    82.076203993   0   0   0 # o
    263      1   5  0.000000    57.115774385    22.387092983    81.230239993   0   0   0 # oz
    264      1   4  0.000000    55.763522288    24.140980005    79.653979993   0   0   0 # o
    265      1   4  0.000000    58.389145110    24.214543753    79.821811993   0   0   0 # o
    266      1   6  0.000000    54.636645540    26.056974190    82.053523993   0   0   0 # oh
    267      1   7  0.000000    54.146454154    22.413027261    82.058059993   0   0   0 # o*
    268      1   5  0.000000    57.076333699    27.328009379    82.028575993   0   0   0 # oz
    269      1   4  0.000000    58.383510727    27.851145524    79.726555993   0   0   0 # o
    270      1   4  0.000000    55.752253520    20.567015547    79.635835993   0   0   0 # o
    271      1   7  0.000000    53.335102896    20.312901274    84.756979993   0   0   0 # o*
    272      1   7  0.000000    53.352006047    24.354796961    84.688939993   0   0   0 # o*
    273      1   8  0.000000    53.722016027    25.094810994    82.950971593   0   0   0 # h*
    274      1   8  0.000000    52.242032450    24.354850333    83.691019993   0   0   0 # h*
    275      1   8  0.000000    53.705112876    21.052915307    82.882931593   0   0   0 # h*
    276      1   8  0.000000    52.225129299    20.312954646    83.622979993   0   0   0 # h*
    277      1   1  0.000000    57.031258629    24.223451846    77.574223993   0   0   0 # ca+
    278      1   1  0.000000    55.425459263    20.508079260    73.870579993   0   0   0 # ca+
    279      1   1  0.000000    54.292948131    26.045937216    79.542847993   0   0   0 # ca+
    280      1   2  0.000000    54.247873061    22.088786384    76.428883993   0   0   0 # sz
    281      1   2  0.000000    54.242238678    26.351753155    76.469707993   0   0   0 # sz
    282      1   6  0.000000    54.230969910    22.903061697    74.963755993   0   0   0 # oh
    283      1   5  0.000000    54.298582515    20.544978446    75.809719993   0   0   0 # oz
    284      1   4  0.000000    52.946330418    22.298865468    77.385979993   0   0   0 # o
    285      1   4  0.000000    55.571953240    22.372429216    77.218147993   0   0   0 # o
    286      1   6  0.000000    54.259141829    25.485894842    75.011383993   0   0   0 # oh
    287      1   4  0.000000    55.566318857    26.009030987    77.313403993   0   0   0 # o
    288      1   4  0.000000    52.935061650    18.724901010    77.404123993   0   0   0 # o
    289      1   7  0.000000    56.152294766    22.155015811    94.962979993   0   0   0 # o*
    290      1   7  0.000000    56.169197917    26.196911498    95.031019993   0   0   0 # o*
    291      1   8  0.000000    56.539207897    26.936925531    74.088988393   0   0   0 # h*
    292      1   8  0.000000    55.059224320    26.196964871    73.348939993   0   0   0 # h*
    293      1   8  0.000000    56.522304746    22.895029844    74.157028393   0   0   0 # h*
    294      1   8  0.000000    55.042321169    22.155069183    73.416979993   0   0   0 # h*
    295      1   8  0.000000    54.516464134    23.153041294    82.798108393   0   0   0 # h*
    296      1   8  0.000000    53.036480557    22.413080633    82.058059993   0   0   0 # h*
    297      1   1  0.000000    54.214066759    22.381337309    88.914223993   0   0   0 # ca+
    298      1   1  0.000000    57.110140001    27.888051754    90.882847993   0   0   0 # ca+
    299      1   2  0.000000    57.065064931    23.930900921    87.768883993   0   0   0 # sz
    300      1   2  0.000000    57.059430548    28.193867692    87.809707993   0   0   0 # sz
    301      1   6  0.000000    57.048161780    24.745176234    86.303755993   0   0   0 # oh
    302      1   5  0.000000    57.115774385    22.387092983    87.149719993   0   0   0 # oz
    303      1   4  0.000000    55.763522288    24.140980005    88.725979993   0   0   0 # o
    304      1   4  0.000000    58.389145110    24.214543753    88.558147993   0   0   0 # o
    305      1   6  0.000000    57.076333699    27.328009379    86.351383993   0   0   0 # oh
    306      1   4  0.000000    58.383510727    27.851145524    88.653403993   0   0   0 # o
    307      1   4  0.000000    55.752253520    20.567015547    88.744123993   0   0   0 # o
    308      1   7  0.000000    53.335102896    20.312901274    83.622979993   0   0   0 # o*
    309      1   7  0.000000    53.352006047    24.354796961    83.691019993   0   0   0 # o*
    310      1   8  0.000000    53.722016027    25.094810994    85.428988393   0   0   0 # h*
    311      1   8  0.000000    52.242032450    24.354850333    84.688939993   0   0   0 # h*
    312      1   8  0.000000    53.705112876    21.052915307    85.497028393   0   0   0 # h*
    313      1   8  0.000000    52.225129299    20.312954646    84.756979993   0   0   0 # h*
    314      1   8  0.000000    57.333656004    24.995155831    94.138108393   0   0   0 # h*