LAMMPS data file. msi2lmp v3.9.9 / 05 Nov 2018 / CGCMM for 10-7

  13640 atoms
      0 bonds
      0 angles
      0 dihedrals
      0 impropers

   9 atom types

     0.627969538    59.017069538 xlo xhi
    -0.901844569    58.050155431 ylo yhi
     0.425397008    56.026397008 zlo zhi

Masses

   1  40.079800 # ca+
   2  28.086000 # sz
   3  15.999400 # oz
   4  15.999400 # o
   5  15.999400 # o*
   6   1.007970 # h*
   7  26.982000 # az
   8  15.999400 # oh
   9   1.007970 # ho

Atoms # full

      1      1   1  0.000000    57.031258629     2.116451846    45.977299950   0   0   0 # ca+
      2      1   1  0.000000    55.425459263    57.353079260    49.680943950   0   0   0 # ca+
      3      1   1  0.000000    54.292948131     3.938937216    44.008675950   0   0   0 # ca+
      4      1   2  0.300000    54.247873061    -0.018213616    47.122639950   0   0   0 # sz
      5      1   2  0.450000    53.380177966     2.118838106    49.066315950   0   0   0 # sz
      6      1   2  0.300000    54.242238678     4.244753155    47.081815950   0   0   0 # sz
      7      1   3 -0.300000    54.230969910     0.796061697    48.587767950   0   0   0 # oz
      8      1   3 -0.300000    54.298582515    57.389978446    47.741803950   0  -1   0 # oz
      9      1   4  0.000000    52.946330418     0.191865468    46.165543950   0   0   0 # o
     10      1   4  0.000000    55.571953240     0.265429216    46.333375950   0   0   0 # o
     11      1   4  0.000000    51.819453670     2.107859653    48.565087950   0   0   0 # o
     12      1   4 -0.223300    56.963646024     2.148141798    48.569623950   0   0   0 # o
     13      1   3 -0.300000    54.259141829     3.378894842    48.540139950   0   0   0 # oz
     14      1   4  0.000000    55.566318857     3.902030987    46.238119950   0   0   0 # o
     15      1   4  0.000000    52.935061650    55.569901010    46.147399950   0  -1   0 # o
     16      1   5 -0.820000    56.152294766     0.048015811    28.588543950   0   0   0 # o*
     17      1   5 -0.820000    56.169197917     4.089911498    28.520503950   0   0   0 # o*
     18      1   6  0.410000    56.539207897     4.829925531    49.462535550   0   0   0 # h*
     19      1   6  0.410000    55.059224320     4.089964871    50.202583950   0   0   0 # h*
     20      1   6  0.410000    56.522304746     0.788029844    49.394495550   0   0   0 # h*
     21      1   6  0.410000    55.042321169     0.048069183    50.134543950   0   0   0 # h*
     22      1   1  0.000000    54.214066759     0.274337309    34.637299950   0   0   0 # ca+
     23      1   1  0.000000    57.110140001     5.781051754    32.668675950   0   0   0 # ca+
     24      1   2  0.150000    57.065064931     1.823900921    35.782639950   0   0   0 # sz
     25      1   7  0.218800    56.197369836     3.960952644    37.726315950   0   0   0 # az
     26      1   2  0.300000    57.059430548     6.086867692    35.741815950   0   0   0 # sz
     27      1   4  0.000000    57.048161780     2.638176234    37.247767950   0   0   0 # o
     28      1   3 -0.300000    57.115774385     0.280092983    36.401803950   0   0   0 # oz
     29      1   4  0.000000    55.763522288     2.033980005    34.825543950   0   0   0 # o
     30      1   4  0.000000    58.389145110     2.107543753    34.993375950   0   0   0 # o
     31      1   8 -0.568800    54.636645540     3.949974190    37.225087950   0   0   0 # oh
     32      1   3 -0.150000    57.076333699     5.221009379    37.200139950   0   0   0 # oz
     33      1   4  0.000000    58.383510727     5.744145524    34.898119950   0   0   0 # o
     34      1   4  0.000000    55.752253520    57.412015547    34.807399950   0  -1   0 # o
     35      1   5 -0.820000    53.335102896    57.157901274    39.928543950   0   0   0 # o*
     36      1   5 -0.820000    53.352006047     2.247796961    39.860503950   0   0   0 # o*
     37      1   6  0.410000    53.722016027     2.987810994    38.122535550   0   0   0 # h*
     38      1   6  0.410000    52.242032450     2.247850333    38.862583950   0   0   0 # h*
     39      1   6  0.410000    53.705112876    57.897915307    38.054495550   0   0   0 # h*
     40      1   6  0.410000    52.225129299    57.157954646    38.794543950   0   0   0 # h*
     41      1   9  0.223300    57.333656004     2.888155831    29.413415550   0   0   0 # ho
     42      1   1  0.000000    57.031258629     2.116451846    32.745787950   0   0   0 # ca+
     43      1   1  0.000000    54.292948131     3.938937216    34.714411950   0   0   0 # ca+
     44      1   2  0.300000    54.247873061    -0.018213616     8.920447950   0   0   0 # sz
     45      1   2  0.450000    53.380177966     2.118838106     6.976771950   0   0   0 # sz
     46      1   2  0.300000    54.242238678     4.244753155     8.961271950   0   0   0 # sz
     47      1   3 -0.300000    54.230969910     0.796061697     7.455319950   0   0   0 # oz
     48      1   3 -0.300000    54.298582515    57.389978446     8.301283950   0  -1   0 # oz
     49      1   4  0.000000    52.946330418     0.191865468     9.877543950   0   0   0 # o
     50      1   4  0.000000    55.571953240     0.265429216     9.709711950   0   0   0 # o
     51      1   4  0.000000    51.819453670     2.107859653     7.477999950   0   0   0 # o
     52      1   4 -0.223300    56.963646024     2.148141798    30.153463950   0   0   0 # o
     53      1   3 -0.300000    54.259141829     3.378894842     7.502947950   0   0   0 # oz
     54      1   4  0.000000    55.566318857     3.902030987     9.804967950   0   0   0 # o
     55      1   4  0.000000    52.935061650    55.569901010     9.895687950   0  -1   0 # o
     56      1   5 -0.820000    56.152294766     0.048015811    50.134543950   0   0   0 # o*
     57      1   5 -0.820000    56.169197917     4.089911498    50.202583950   0   0   0 # o*
     58      1   6  0.410000    56.539207897     4.829925531    29.260552350   0   0   0 # h*
     59      1   6  0.410000    55.059224320     4.089964871    28.520503950   0   0   0 # h*
     60      1   6  0.410000    56.522304746     0.788029844    29.328592350   0   0   0 # h*
     61      1   6  0.410000    55.042321169     0.048069183    28.588543950   0   0   0 # h*
     62      1   1  0.000000    54.214066759     0.274337309    44.085787950   0   0   0 # ca+
     63      1   1  0.000000    57.110140001     5.781051754    46.054411950   0   0   0 # ca+
     64      1   2  0.368800    57.065064931     1.823900921    42.940447950   0   0   0 # sz
     65      1   2  0.368800    57.059430548     6.086867692    42.981271950   0   0   0 # sz
     66      1   8 -0.568800    57.048161780     2.638176234    41.475319950   0   0   0 # oh
     67      1   3 -0.300000    57.115774385     0.280092983    42.321283950   0   0   0 # oz
     68      1   4  0.000000    55.763522288     2.033980005    43.897543950   0   0   0 # o
     69      1   4  0.000000    58.389145110     2.107543753    43.729711950   0   0   0 # o
     70      1   4  0.000000    54.146454154     0.306027261    41.493463950   0   0   0 # o
     71      1   8 -0.568800    57.076333699     5.221009379    41.522947950   0   0   0 # oh
     72      1   4  0.000000    58.383510727     5.744145524    43.824967950   0   0   0 # o
     73      1   4  0.000000    55.752253520    57.412015547    43.915687950   0  -1   0 # o
     74      1   5 -0.820000    53.335102896    57.157901274    38.794543950   0   0   0 # o*
     75      1   5 -0.820000    53.352006047     2.247796961    38.862583950   0   0   0 # o*
     76      1   6  0.410000    53.722016027     2.987810994    40.600552350   0   0   0 # h*
     77      1   6  0.410000    52.242032450     2.247850333    39.860503950   0   0   0 # h*
     78      1   6  0.410000    53.705112876    57.897915307    40.668592350   0   0   0 # h*
     79      1   6  0.410000    52.225129299    57.157954646    39.928543950   0   0   0 # h*
     80      1   9  0.223300    57.333656004     2.888155831    49.309672350   0   0   0 # ho
     81      1   3 -0.300000    53.464693722     2.151994543    50.701543950   0   0   0 # oz
     82      1   5 -0.820000    56.281885592     3.994109080    39.361543950   0   0   0 # o*
     83      1   1  0.000000    57.031258629     9.485451846    45.977299950   0   0   0 # ca+
     84      1   1  0.000000    55.425459263     5.770079260    49.680943950   0   0   0 # ca+
     85      1   1  0.000000    54.292948131    11.307937216    44.008675950   0   0   0 # ca+
     86      1   2  0.300000    54.247873061     7.350786384    47.122639950   0   0   0 # sz
     87      1   2  0.300000    53.380177966     9.487838106    49.066315950   0   0   0 # sz
     88      1   2  0.300000    54.242238678    11.613753155    47.081815950   0   0   0 # sz
     89      1   3 -0.300000    54.230969910     8.165061697    48.587767950   0   0   0 # oz
     90      1   3 -0.300000    54.298582515     5.806978446    47.741803950   0   0   0 # oz
     91      1   4  0.000000    52.946330418     7.560865468    46.165543950   0   0   0 # o
     92      1   4  0.000000    55.571953240     7.634429216    46.333375950   0   0   0 # o
     93      1   4  0.000000    51.819453670     9.476859653    48.565087950   0   0   0 # o
     94      1   5 -0.820000    56.963646024     9.517141798    48.569623950   0   0   0 # o*
     95      1   3 -0.300000    54.259141829    10.747894842    48.540139950   0   0   0 # oz
     96      1   4  0.000000    55.566318857    11.271030987    46.238119950   0   0   0 # o
     97      1   4  0.000000    52.935061650     3.986901010    46.147399950   0   0   0 # o
     98      1   5 -0.820000    56.152294766     7.417015811    28.588543950   0   0   0 # o*
     99      1   5 -0.820000    56.169197917    11.458911498    28.520503950   0   0   0 # o*
    100      1   9  0.223300    56.539207897    12.198925531    49.462535550   0   0   0 # ho
    101      1   6  0.410000    56.522304746     8.157029844    49.394495550   0   0   0 # h*
    102      1   6  0.410000    55.042321169     7.417069183    50.134543950   0   0   0 # h*
    103      1   1  0.000000    54.214066759     7.643337309    34.637299950   0   0   0 # ca+
    104      1   1  0.000000    58.242651133     7.612193797    38.340943950   0   0   0 # ca+
    105      1   1  0.000000    57.110140001    13.150051754    32.668675950   0   0   0 # ca+
    106      1   2  0.300000    57.065064931     9.192900921    35.782639950   0   0   0 # sz
    107      1   2  0.450000    56.197369836    11.329952644    37.726315950   0   0   0 # sz
    108      1   2  0.300000    57.059430548    13.455867692    35.741815950   0   0   0 # sz
    109      1   3 -0.300000    57.048161780    10.007176234    37.247767950   0   0   0 # oz
    110      1   3 -0.300000    57.115774385     7.649092983    36.401803950   0   0   0 # oz
    111      1   4  0.000000    55.763522288     9.402980005    34.825543950   0   0   0 # o
    112      1   4  0.000000    58.389145110     9.476543753    34.993375950   0   0   0 # o
    113      1   4  0.000000    54.636645540    11.318974190    37.225087950   0   0   0 # o
    114      1   5 -0.820000    54.146454154     7.675027261    37.229623950   0   0   0 # o*
    115      1   3 -0.300000    57.076333699    12.590009379    37.200139950   0   0   0 # oz
    116      1   4  0.000000    58.383510727    13.113145524    34.898119950   0   0   0 # o
    117      1   4  0.000000    55.752253520     5.829015547    34.807399950   0   0   0 # o
    118      1   5 -0.820000    53.335102896     5.574901274    39.928543950   0   0   0 # o*
    119      1   5 -0.820000    53.352006047     9.616796961    39.860503950   0   0   0 # o*
    120      1   6  0.410000    53.722016027    10.356810994    38.122535550   0   0   0 # h*
    121      1   6  0.410000    52.242032450     9.616850333    38.862583950   0   0   0 # h*
    122      1   6  0.410000    53.705112876     6.314915307    38.054495550   0   0   0 # h*
    123      1   6  0.410000    52.225129299     5.574954646    38.794543950   0   0   0 # h*
    124      1   1  0.000000    57.031258629     9.485451846    32.745787950   0   0   0 # ca+
    125      1   1  0.000000    55.425459263     5.770079260    29.042143950   0   0   0 # ca+
    126      1   1  0.000000    54.292948131    11.307937216    34.714411950   0   0   0 # ca+
    127      1   2  0.368800    54.247873061     7.350786384     8.920447950   0   0   0 # sz
    128      1   2  0.368800    54.242238678    11.613753155    31.641271950   0   0   0 # sz
    129      1   8 -0.568800    54.230969910     8.165061697     7.455319950   0   0   0 # oh
    130      1   3 -0.300000    54.298582515     5.806978446     8.301283950   0   0   0 # oz
    131      1   4  0.000000    52.946330418     7.560865468     9.877543950   0   0   0 # o
    132      1   4  0.000000    55.571953240     7.634429216     9.709711950   0   0   0 # o
    133      1   8 -0.568800    54.259141829    10.747894842    30.182947950   0   0   0 # oh
    134      1   4  0.000000    55.566318857    11.271030987    32.484967950   0   0   0 # o
    135      1   4  0.000000    52.935061650     3.986901010     9.895687950   0   0   0 # o
    136      1   5 -0.820000    56.152294766     7.417015811    50.134543950   0   0   0 # o*
    137      1   4 -0.223300    56.169197917    11.458911498    50.202583950   0   0   0 # o
    138      1   6  0.410000    56.539197543    12.198911599    27.780503849   0   0   0 # h*
    139      1   6  0.410000    56.522304746     8.157029844    29.328592350   0   0   0 # h*
    140      1   6  0.410000    55.042321169     7.417069183    28.588543950   0   0   0 # h*
    141      1   6  0.410000    54.516464134     8.415041294    37.969672350   0   0   0 # h*
    142      1   6  0.410000    53.036480557     7.675080633    37.229623950   0   0   0 # h*
    143      1   1  0.000000    54.214066759     7.643337309    44.085787950   0   0   0 # ca+
    144      1   1  0.000000    57.110140001    13.150051754    46.054411950   0   0   0 # ca+
    145      1   2  0.300000    57.065064931     9.192900921    42.940447950   0   0   0 # sz
    146      1   7  0.218800    56.197369836    11.329952644    40.996771950   0   0   0 # az
    147      1   2  0.300000    57.059430548    13.455867692    42.981271950   0   0   0 # sz
    148      1   3 -0.150000    57.048161780    10.007176234    41.475319950   0   0   0 # oz
    149      1   3 -0.300000    57.115774385     7.649092983    42.321283950   0   0   0 # oz
    150      1   4  0.000000    55.763522288     9.402980005    43.897543950   0   0   0 # o
    151      1   4  0.000000    58.389145110     9.476543753    43.729711950   0   0   0 # o
    152      1   8 -0.568800    54.636645540    11.318974190    41.497999950   0   0   0 # oh
    153      1   3 -0.150000    57.076333699    12.590009379    41.522947950   0   0   0 # oz
    154      1   4  0.000000    58.383510727    13.113145524    43.824967950   0   0   0 # o
    155      1   4  0.000000    55.752253520     5.829015547    43.915687950   0   0   0 # o
    156      1   5 -0.820000    53.335102896     5.574901274    38.794543950   0   0   0 # o*
    157      1   5 -0.820000    53.352006047     9.616796961    38.862583950   0   0   0 # o*
    158      1   6  0.410000    53.722016027    10.356810994    40.600552350   0   0   0 # h*
    159      1   6  0.410000    52.242032450     9.616850333    39.860503950   0   0   0 # h*
    160      1   6  0.410000    53.705112876     6.314915307    40.668592350   0   0   0 # h*
    161      1   6  0.410000    52.225129299     5.574954646    39.928543950   0   0   0 # h*
    162      1   6  0.410000    57.333656004    10.257155831    49.309672350   0   0   0 # h*
    163      1   6  0.410000    55.853672427     9.517195170    48.569623950   0   0   0 # h*
    164      1   4  0.000000    53.464693722     9.520994543    50.701543950   0   0   0 # o
    165      1   3 -0.150000    56.281885592    11.363109080    39.361543950   0   0   0 # oz
    166      1   1  0.000000    57.031258629    16.854451846    45.977299950   0   0   0 # ca+
    167      1   1  0.000000    55.425459263    13.139079260    49.680943950   0   0   0 # ca+
    168      1   1  0.000000    54.292948131    18.676937216    44.008675950   0   0   0 # ca+
    169      1   2  0.150000    54.247873061    14.719786384    47.122639950   0   0   0 # sz
    170      1   7  0.218800    53.380177966    16.856838106    49.066315950   0   0   0 # az
    171      1   2  0.300000    54.242238678    18.982753155    47.081815950   0   0   0 # sz
    172      1   4  0.000000    54.230969910    15.534061697    48.587767950   0   0   0 # o
    173      1   3 -0.300000    54.298582515    13.175978446    47.741803950   0   0   0 # oz
    174      1   4  0.000000    52.946330418    14.929865468    46.165543950   0   0   0 # o
    175      1   4  0.000000    55.571953240    15.003429216    46.333375950   0   0   0 # o
    176      1   8 -0.568800    51.819453670    16.845859653    48.565087950   0   0   0 # oh
    177      1   3 -0.150000    54.259141829    18.116894842    48.540139950   0   0   0 # oz
    178      1   4  0.000000    55.566318857    18.640030987    46.238119950   0   0   0 # o
    179      1   4  0.000000    52.935061650    11.355901010    46.147399950   0   0   0 # o
    180      1   5 -0.820000    56.152294766    14.786015811    28.588543950   0   0   0 # o*
    181      1   5 -0.820000    56.169197917    18.827911498    28.520503950   0   0   0 # o*
    182      1   6  0.410000    56.539207897    19.567925531    49.462535550   0   0   0 # h*
    183      1   6  0.410000    55.059224320    18.827964871    50.202583950   0   0   0 # h*
    184      1   6  0.410000    56.522304746    15.526029844    49.394495550   0   0   0 # h*
    185      1   6  0.410000    55.042321169    14.786069183    50.134543950   0   0   0 # h*
    186      1   1  0.000000    54.214066759    15.012337309    34.637299950   0   0   0 # ca+
    187      1   1  0.000000    57.110140001    20.519051754    32.668675950   0   0   0 # ca+
    188      1   2  0.368800    57.065064931    16.561900921    35.782639950   0   0   0 # sz
    189      1   2  0.368800    57.059430548    20.824867692    35.741815950   0   0   0 # sz
    190      1   8 -0.568800    57.048161780    17.376176234    37.247767950   0   0   0 # oh
    191      1   3 -0.300000    57.115774385    15.018092983    36.401803950   0   0   0 # oz
    192      1   4  0.000000    55.763522288    16.771980005    34.825543950   0   0   0 # o
    193      1   4  0.000000    58.389145110    16.845543753    34.993375950   0   0   0 # o
    194      1   8 -0.568800    57.076333699    19.959009379    37.200139950   0   0   0 # oh
    195      1   4  0.000000    58.383510727    20.482145524    34.898119950   0   0   0 # o
    196      1   4  0.000000    55.752253520    13.198015547    34.807399950   0   0   0 # o
    197      1   5 -0.820000    53.335102896    12.943901274    39.928543950   0   0   0 # o*
    198      1   5 -0.820000    53.352006047    16.985796961    39.860503950   0   0   0 # o*
    199      1   6  0.410000    53.722016027    17.725810994    38.122535550   0   0   0 # h*
    200      1   6  0.410000    52.242032450    16.985850333    38.862583950   0   0   0 # h*
    201      1   6  0.410000    53.705112876    13.683915307    38.054495550   0   0   0 # h*
    202      1   6  0.410000    52.225129299    12.943954646    38.794543950   0   0   0 # h*
    203      1   1  0.000000    57.031258629    16.854451846    32.745787950   0   0   0 # ca+
    204      1   1  0.000000    54.292948131    18.676937216    34.714411950   0   0   0 # ca+
    205      1   2  0.368800    54.247873061    14.719786384    31.600447950   0   0   0 # sz
    206      1   2  0.368800    54.242238678    18.982753155    31.641271950   0   0   0 # sz
    207      1   8 -0.568800    54.230969910    15.534061697    30.135319950   0   0   0 # oh
    208      1   3 -0.300000    54.298582515    13.175978446    30.981283950   0   0   0 # oz
    209      1   4  0.000000    52.946330418    14.929865468    32.557543950   0   0   0 # o
    210      1   4  0.000000    55.571953240    15.003429216    32.389711950   0   0   0 # o
    211      1   8 -0.568800    54.259141829    18.116894842    30.182947950   0   0   0 # oh
    212      1   4  0.000000    55.566318857    18.640030987    32.484967950   0   0   0 # o
    213      1   4  0.000000    52.935061650    11.355901010    32.575687950   0   0   0 # o
    214      1   5 -0.820000    56.152294766    14.786015811    50.134543950   0   0   0 # o*
    215      1   5 -0.820000    56.169197917    18.827911498    50.202583950   0   0   0 # o*
    216      1   6  0.410000    56.539207897    19.567925531    29.260552350   0   0   0 # h*
    217      1   6  0.410000    55.059224320    18.827964871    28.520503950   0   0   0 # h*
    218      1   6  0.410000    56.522304746    15.526029844    29.328592350   0   0   0 # h*
    219      1   6  0.410000    55.042321169    14.786069183    28.588543950   0   0   0 # h*
    220      1   1  0.000000    54.214066759    15.012337309    44.085787950   0   0   0 # ca+
    221      1   1  0.000000    57.110140001    20.519051754    46.054411950   0   0   0 # ca+
    222      1   2  0.368800    57.065064931    16.561900921    42.940447950   0   0   0 # sz
    223      1   2  0.368800    57.059430548    20.824867692    42.981271950   0   0   0 # sz
    224      1   8 -0.568800    57.048161780    17.376176234    41.475319950   0   0   0 # oh
    225      1   3 -0.300000    57.115774385    15.018092983    42.321283950   0   0   0 # oz
    226      1   4  0.000000    55.763522288    16.771980005    43.897543950   0   0   0 # o
    227      1   4  0.000000    58.389145110    16.845543753    43.729711950   0   0   0 # o
    228      1   8 -0.568800    57.076333699    19.959009379    41.522947950   0   0   0 # oh
    229      1   4  0.000000    58.383510727    20.482145524    43.824967950   0   0   0 # o
    230      1   4  0.000000    55.752253520    13.198015547    43.915687950   0   0   0 # o
    231      1   5 -0.820000    53.335102896    12.943901274    38.794543950   0   0   0 # o*
    232      1   5 -0.820000    53.352006047    16.985796961    38.862583950   0   0   0 # o*
    233      1   6  0.410000    53.722016027    17.725810994    40.600552350   0   0   0 # h*
    234      1   6  0.410000    52.242032450    16.985850333    39.860503950   0   0   0 # h*
    235      1   6  0.410000    53.705112876    13.683915307    40.668592350   0   0   0 # h*
    236      1   6  0.410000    52.225129299    12.943954646    39.928543950   0   0   0 # h*
    237      1   5 -0.820000    53.464693722    16.889994543    50.701543950   0   0   0 # o*
    238      1   1  0.000000    57.031258629    24.223451846    45.977299950   0   0   0 # ca+
    239      1   1  0.000000    54.292948131    26.045937216    44.008675950   0   0   0 # ca+
    240      1   2  0.368800    54.247873061    22.088786384    47.122639950   0   0   0 # sz
    241      1   2  0.368800    54.242238678    26.351753155    24.401815950   0   0   0 # sz
    242      1   8 -0.568800    54.230969910    22.903061697    48.587767950   0   0   0 # oh
    243      1   3 -0.300000    54.298582515    20.544978446    47.741803950   0   0   0 # oz
    244      1   4  0.000000    52.946330418    22.298865468    46.165543950   0   0   0 # o
    245      1   4  0.000000    55.571953240    22.372429216    46.333375950   0   0   0 # o
    246      1   8 -0.568800    54.259141829    25.485894842    25.860139950   0   0   0 # oh
    247      1   4  0.000000    55.566318857    26.009030987    23.558119950   0   0   0 # o
    248      1   4  0.000000    52.935061650    18.724901010    46.147399950   0   0   0 # o
    249      1   5 -0.820000    56.152294766    22.155015811    28.588543950   0   0   0 # o*
    250      1   5 -0.820000    56.169197917    26.196911498    28.520503950   0   0   0 # o*
    251      1   6  0.410000    56.539207897    26.936925531    49.462535550   0   0   0 # h*
    252      1   6  0.410000    55.059224320    26.196964871    50.202583950   0   0   0 # h*
    253      1   6  0.410000    56.522304746    22.895029844    49.394495550   0   0   0 # h*
    254      1   6  0.410000    55.042321169    22.155069183    50.134543950   0   0   0 # h*
    255      1   9  0.223300    54.516464134    23.153041294    40.753415550   0   0   0 # ho
    256      1   1  0.000000    54.214066759    22.381337309    34.637299950   0   0   0 # ca+
    257      1   1  0.000000    58.242651133    22.350193797    38.340943950   0   0   0 # ca+
    258      1   1  0.000000    57.110140001    27.888051754    32.668675950   0   0   0 # ca+
    259      1   2  0.300000    57.065064931    23.930900921    35.782639950   0   0   0 # sz
    260      1   2  0.450000    56.197369836    26.067952644    37.726315950   0   0   0 # sz
    261      1   2  0.300000    57.059430548    28.193867692    35.741815950   0   0   0 # sz
    262      1   3 -0.300000    57.048161780    24.745176234    37.247767950   0   0   0 # oz
    263      1   3 -0.300000    57.115774385    22.387092983    36.401803950   0   0   0 # oz
    264      1   4  0.000000    55.763522288    24.140980005    34.825543950   0   0   0 # o
    265      1   4  0.000000    58.389145110    24.214543753    34.993375950   0   0   0 # o
    266      1   4  0.000000    54.636645540    26.056974190    37.225087950   0   0   0 # o
    267      1   4 -0.223300    54.146454154    22.413027261    37.229623950   0   0   0 # o
    268      1   3 -0.300000    57.076333699    27.328009379    37.200139950   0   0   0 # oz
    269      1   4  0.000000    58.383510727    27.851145524    34.898119950   0   0   0 # o
    270      1   4  0.000000    55.752253520    20.567015547    34.807399950   0   0   0 # o
    271      1   5 -0.820000    53.335102896    20.312901274    39.928543950   0   0   0 # o*
    272      1   5 -0.820000    53.352006047    24.354796961    39.860503950   0   0   0 # o*
    273      1   6  0.410000    53.722016027    25.094810994    38.122535550   0   0   0 # h*
    274      1   6  0.410000    52.242032450    24.354850333    38.862583950   0   0   0 # h*
    275      1   6  0.410000    53.705112876    21.052915307    38.054495550   0   0   0 # h*
    276      1   6  0.410000    52.225129299    20.312954646    38.794543950   0   0   0 # h*
    277      1   1  0.000000    57.031258629    24.223451846    32.745787950   0   0   0 # ca+
    278      1   1  0.000000    54.292948131    26.045937216    34.714411950   0   0   0 # ca+
    279      1   2  0.150000    54.247873061    22.088786384    31.600447950   0   0   0 # sz
    280      1   7  0.218800    53.380177966    24.225838106    29.656771950   0   0   0 # az
    281      1   2  0.300000    54.242238678    26.351753155    31.641271950   0   0   0 # sz
    282      1   4  0.000000    54.230969910    22.903061697    30.135319950   0   0   0 # o
    283      1   3 -0.300000    54.298582515    20.544978446    30.981283950   0   0   0 # oz
    284      1   4  0.000000    52.946330418    22.298865468    32.557543950   0   0   0 # o
    285      1   4  0.000000    55.571953240    22.372429216    32.389711950   0   0   0 # o
    286      1   8 -0.568800    51.819453670    24.214859653    30.157999950   0   0   0 # oh
    287      1   3 -0.150000    54.259141829    25.485894842    30.182947950   0   0   0 # oz
    288      1   4  0.000000    55.566318857    26.009030987    32.484967950   0   0   0 # o
    289      1   4  0.000000    52.935061650    18.724901010    32.575687950   0   0   0 # o
    290      1   5 -0.820000    56.152294766    22.155015811    50.134543950   0   0   0 # o*
    291      1   5 -0.820000    56.169197917    26.196911498    50.202583950   0   0   0 # o*
    292      1   6  0.410000    56.539207897    26.936925531    29.260552350   0   0   0 # h*
    293      1   6  0.410000    55.059224320    26.196964871    28.520503950   0   0   0 # h*
    294      1   6  0.410000    56.522304746    22.895029844    29.328592350   0   0   0 # h*
    295      1   6  0.410000    55.042321169    22.155069183    28.588543950   0   0   0 # h*
    296      1   9  0.223300    54.516464134    23.153041294    37.969672350   0   0   0 # ho
    297      1   1  0.000000    54.214066759    22.381337309    44.085787950   0   0   0 # ca+
    298      1   1  0.000000    58.242651133    22.350193797    40.382143950   0   0   0 # ca+
    299      1   1  0.000000    57.110140001    27.888051754    46.054411950   0   0   0 # ca+
    300      1   2  0.300000    57.065064931    23.930900921    42.940447950   0   0   0 # sz
    301      1   2  0.450000    56.197369836    26.067952644    40.996771950   0   0   0 # sz
    302      1   2  0.300000    57.059430548    28.193867692    42.981271950   0   0   0 # sz
    303      1   3 -0.300000    57.048161780    24.745176234    41.475319950   0   0   0 # oz
    304      1   3 -0.300000    57.115774385    22.387092983    42.321283950   0   0   0 # oz
    305      1   4  0.000000    55.763522288    24.140980005    43.897543950   0   0   0 # o
    306      1   4  0.000000    58.389145110    24.214543753    43.729711950   0   0   0 # o
    307      1   4  0.000000    54.636645540    26.056974190    41.497999950   0   0   0 # o
    308      1   4 -0.223300    54.146454154    22.413027261    41.493463950   0   0   0 # o
    309      1   3 -0.300000    57.076333699    27.328009379    41.522947950   0   0   0 # oz
    310      1   4  0.000000    58.383510727    27.851145524    43.824967950   0   0   0 # o
    311      1   4  0.000000    55.752253520    20.567015547    43.915687950   0   0   0 # o
    312      1   5 -0.820000    53.335102896    20.312901274    38.794543950   0   0   0 # o*
    313      1   5 -0.820000    53.352006047    24.354796961    38.862583950   0   0   0 # o*
    314      1   6  0.410000    53.722016027    25.094810994    40.600552350   0   0   0 # h*