LAMMPS data file. msi2lmp v3.9.9 / 05 Nov 2018 / CGCMM for 10-12

  13380 atoms
      0 bonds
      0 angles
      0 dihedrals
      0 impropers

   9 atom types

     0.648583893    59.037683893 xlo xhi
    -0.916835614    58.035164386 ylo yhi
     0.259797027    55.860797027 zlo zhi

Masses

   1  40.079800 # ca+
   2  28.086000 # sz
   3  15.999400 # oz
   4  15.999400 # o
   5  15.999400 # o*
   6   1.007970 # h*
   7  26.982000 # az
   8  15.999400 # oh
   9   1.007970 # ho


Atoms # full

      1      1   1  0.000000    57.031258629     2.116451846    45.977299950   0   0   0 # ca+
      2      1   1  0.000000    54.292948131     3.938937216    44.008675950   0   0   0 # ca+
      3      1   2  0.300000    54.247873061    -0.018213616    47.122639950   0   0   0 # sz
      4      1   2  0.450000    53.380177966     2.118838106    49.066315950   0   0   0 # sz
      5      1   2  0.300000    54.242238678     4.244753155    47.081815950   0   0   0 # sz
      6      1   3 -0.300000    54.230969910     0.796061697    48.587767950   0   0   0 # oz
      7      1   3 -0.300000    54.298582515    57.389978446    47.741803950   0  -1   0 # oz
      8      1   4  0.000000    52.946330418     0.191865468    46.165543950   0   0   0 # o
      9      1   4  0.000000    55.571953240     0.265429216    46.333375950   0   0   0 # o
     10      1   4  0.000000    51.819453670     2.107859653    48.565087950   0   0   0 # o
     11      1   4 -0.223300    56.963646024     2.148141798    48.569623950   0   0   0 # o
     12      1   3 -0.300000    54.259141829     3.378894842    48.540139950   0   0   0 # oz
     13      1   4  0.000000    55.566318857     3.902030987    46.238119950   0   0   0 # o
     14      1   4  0.000000    52.935061650    55.569901010    46.147399950   0  -1   0 # o
     15      1   5 -0.820000    56.152294766     0.048015811    28.588543950   0   0   0 # o*
     16      1   5 -0.820000    56.169197917     4.089911498    28.520503950   0   0   0 # o*
     17      1   6  0.410000    56.539207897     4.829925531    49.462535550   0   0   0 # h*
     18      1   6  0.410000    55.059224320     4.089964871    50.202583950   0   0   0 # h*
     19      1   6  0.410000    56.522304746     0.788029844    49.394495550   0   0   0 # h*
     20      1   6  0.410000    55.042321169     0.048069183    50.134543950   0   0   0 # h*
     21      1   1  0.000000    54.214066759     0.274337309    34.637299950   0   0   0 # ca+
     22      1   1  0.000000    57.110140001     5.781051754    32.668675950   0   0   0 # ca+
     23      1   2  0.150000    57.065064931     1.823900921    35.782639950   0   0   0 # sz
     24      1   7  0.218800    56.197369836     3.960952644    37.726315950   0   0   0 # az
     25      1   2  0.300000    57.059430548     6.086867692    35.741815950   0   0   0 # sz
     26      1   4  0.000000    57.048161780     2.638176234    37.247767950   0   0   0 # o
     27      1   3 -0.300000    57.115774385     0.280092983    36.401803950   0   0   0 # oz
     28      1   4  0.000000    55.763522288     2.033980005    34.825543950   0   0   0 # o
     29      1   4  0.000000    58.389145110     2.107543753    34.993375950   0   0   0 # o
     30      1   8 -0.568800    54.636645540     3.949974190    37.225087950   0   0   0 # oh
     31      1   3 -0.150000    57.076333699     5.221009379    37.200139950   0   0   0 # oz
     32      1   4  0.000000    58.383510727     5.744145524    34.898119950   0   0   0 # o
     33      1   4  0.000000    55.752253520    57.412015547    34.807399950   0  -1   0 # o
     34      1   5 -0.820000    53.335102896    57.157901274    39.928543950   0   0   0 # o*
     35      1   5 -0.820000    53.352006047     2.247796961    39.860503950   0   0   0 # o*
     36      1   6  0.410000    53.722016027     2.987810994    38.122535550   0   0   0 # h*
     37      1   6  0.410000    52.242032450     2.247850333    38.862583950   0   0   0 # h*
     38      1   6  0.410000    53.705112876    57.897915307    38.054495550   0   0   0 # h*
     39      1   6  0.410000    52.225129299    57.157954646    38.794543950   0   0   0 # h*
     40      1   9  0.223300    57.333656004     2.888155831    29.413415550   0   0   0 # ho
     41      1   1  0.000000    57.031258629     2.116451846    32.745787950   0   0   0 # ca+
     42      1   1  0.000000    54.292948131     3.938937216    34.714411950   0   0   0 # ca+
     43      1   2  0.300000    54.247873061    -0.018213616     8.920447950   0   0   0 # sz
     44      1   2  0.450000    53.380177966     2.118838106     6.976771950   0   0   0 # sz
     45      1   2  0.300000    54.242238678     4.244753155     8.961271950   0   0   0 # sz
     46      1   3 -0.300000    54.230969910     0.796061697     7.455319950   0   0   0 # oz
     47      1   3 -0.300000    54.298582515    57.389978446     8.301283950   0  -1   0 # oz
     48      1   4  0.000000    52.946330418     0.191865468     9.877543950   0   0   0 # o
     49      1   4  0.000000    55.571953240     0.265429216     9.709711950   0   0   0 # o
     50      1   4  0.000000    51.819453670     2.107859653     7.477999950   0   0   0 # o
     51      1   4 -0.223300    56.963646024     2.148141798    30.153463950   0   0   0 # o
     52      1   3 -0.300000    54.259141829     3.378894842     7.502947950   0   0   0 # oz
     53      1   4  0.000000    55.566318857     3.902030987     9.804967950   0   0   0 # o
     54      1   4  0.000000    52.935061650    55.569901010     9.895687950   0  -1   0 # o
     55      1   5 -0.820000    56.152294766     0.048015811    50.134543950   0   0   0 # o*
     56      1   5 -0.820000    56.169197917     4.089911498    50.202583950   0   0   0 # o*
     57      1   6  0.410000    56.539207897     4.829925531    29.260552350   0   0   0 # h*
     58      1   6  0.410000    55.059224320     4.089964871    28.520503950   0   0   0 # h*
     59      1   6  0.410000    56.522304746     0.788029844    29.328592350   0   0   0 # h*
     60      1   6  0.410000    55.042321169     0.048069183    28.588543950   0   0   0 # h*
     61      1   1  0.000000    54.214066759     0.274337309    44.085787950   0   0   0 # ca+
     62      1   1  0.000000    57.110140001     5.781051754    46.054411950   0   0   0 # ca+
     63      1   2  0.368800    57.065064931     1.823900921    42.940447950   0   0   0 # sz
     64      1   2  0.368800    57.059430548     6.086867692    42.981271950   0   0   0 # sz
     65      1   8 -0.568800    57.048161780     2.638176234    41.475319950   0   0   0 # oh
     66      1   3 -0.300000    57.115774385     0.280092983    42.321283950   0   0   0 # oz
     67      1   4  0.000000    55.763522288     2.033980005    43.897543950   0   0   0 # o
     68      1   4  0.000000    58.389145110     2.107543753    43.729711950   0   0   0 # o
     69      1   4  0.000000    54.146454154     0.306027261    41.493463950   0   0   0 # o
     70      1   8 -0.568800    57.076333699     5.221009379    41.522947950   0   0   0 # oh
     71      1   4  0.000000    58.383510727     5.744145524    43.824967950   0   0   0 # o
     72      1   4  0.000000    55.752253520    57.412015547    43.915687950   0  -1   0 # o
     73      1   5 -0.820000    53.335102896    57.157901274    38.794543950   0   0   0 # o*
     74      1   5 -0.820000    53.352006047     2.247796961    38.862583950   0   0   0 # o*
     75      1   6  0.410000    53.722016027     2.987810994    40.600552350   0   0   0 # h*
     76      1   6  0.410000    52.242032450     2.247850333    39.860503950   0   0   0 # h*
     77      1   6  0.410000    53.705112876    57.897915307    40.668592350   0   0   0 # h*
     78      1   6  0.410000    52.225129299    57.157954646    39.928543950   0   0   0 # h*
     79      1   9  0.223300    57.333656004     2.888155831    49.309672350   0   0   0 # ho
     80      1   3 -0.300000    53.464693722     2.151994543     5.341543950   0   0   0 # oz
     81      1   5 -0.820000    56.281885592     3.994109080    39.361543950   0   0   0 # o*
     82      1   1  0.000000    57.031258629     9.485451846    45.977299950   0   0   0 # ca+
     83      1   1  0.000000    55.425459263     5.770079260    49.680943950   0   0   0 # ca+
     84      1   1  0.000000    54.292948131    11.307937216    44.008675950   0   0   0 # ca+
     85      1   2  0.368800    54.247873061     7.350786384    47.122639950   0   0   0 # sz
     86      1   2  0.368800    54.242238678    11.613753155    47.081815950   0   0   0 # sz
     87      1   8 -0.568800    54.230969910     8.165061697    48.587767950   0   0   0 # oh
     88      1   3 -0.300000    54.298582515     5.806978446    47.741803950   0   0   0 # oz
     89      1   4  0.000000    52.946330418     7.560865468    46.165543950   0   0   0 # o
     90      1   4  0.000000    55.571953240     7.634429216    46.333375950   0   0   0 # o
     91      1   8 -0.568800    54.259141829    10.747894842    48.540139950   0   0   0 # oh
     92      1   4  0.000000    55.566318857    11.271030987    46.238119950   0   0   0 # o
     93      1   4  0.000000    52.935061650     3.986901010    46.147399950   0   0   0 # o
     94      1   5 -0.820000    56.152294766     7.417015811    28.588543950   0   0   0 # o*
     95      1   5 -0.820000    56.169197917    11.458911498    28.520503950   0   0   0 # o*
     96      1   6  0.410000    56.539197543    12.198911599    49.462583849   0   0   0 # h*
     97      1   6  0.410000    56.522304746     8.157029844    49.394495550   0   0   0 # h*
     98      1   6  0.410000    55.042321169     7.417069183    50.134543950   0   0   0 # h*
     99      1   1  0.000000    54.214066759     7.643337309    34.637299950   0   0   0 # ca+
    100      1   1  0.000000    58.242651133     7.612193797    38.340943950   0   0   0 # ca+
    101      1   1  0.000000    57.110140001    13.150051754    32.668675950   0   0   0 # ca+
    102      1   2  0.300000    57.065064931     9.192900921    35.782639950   0   0   0 # sz
    103      1   2  0.450000    56.197369836    11.329952644    37.726315950   0   0   0 # sz
    104      1   2  0.300000    57.059430548    13.455867692    35.741815950   0   0   0 # sz
    105      1   3 -0.300000    57.048161780    10.007176234    37.247767950   0   0   0 # oz
    106      1   3 -0.300000    57.115774385     7.649092983    36.401803950   0   0   0 # oz
    107      1   4  0.000000    55.763522288     9.402980005    34.825543950   0   0   0 # o
    108      1   4  0.000000    58.389145110     9.476543753    34.993375950   0   0   0 # o
    109      1   4  0.000000    54.636645540    11.318974190    37.225087950   0   0   0 # o
    110      1   5 -0.820000    54.146454154     7.675027261    37.229623950   0   0   0 # o*
    111      1   3 -0.300000    57.076333699    12.590009379    37.200139950   0   0   0 # oz
    112      1   4  0.000000    58.383510727    13.113145524    34.898119950   0   0   0 # o
    113      1   4  0.000000    55.752253520     5.829015547    34.807399950   0   0   0 # o
    114      1   5 -0.820000    53.335102896     5.574901274    39.928543950   0   0   0 # o*
    115      1   5 -0.820000    53.352006047     9.616796961    39.860503950   0   0   0 # o*
    116      1   6  0.410000    53.722016027    10.356810994    38.122535550   0   0   0 # h*
    117      1   6  0.410000    52.242032450     9.616850333    38.862583950   0   0   0 # h*
    118      1   6  0.410000    53.705112876     6.314915307    38.054495550   0   0   0 # h*
    119      1   6  0.410000    52.225129299     5.574954646    38.794543950   0   0   0 # h*
    120      1   1  0.000000    57.031258629     9.485451846    32.745787950   0   0   0 # ca+
    121      1   1  0.000000    55.425459263     5.770079260    29.042143950   0   0   0 # ca+
    122      1   1  0.000000    54.292948131    11.307937216    34.714411950   0   0   0 # ca+
    123      1   2  0.368800    54.247873061     7.350786384     8.920447950   0   0   0 # sz
    124      1   2  0.368800    54.242238678    11.613753155    31.641271950   0   0   0 # sz
    125      1   8 -0.568800    54.230969910     8.165061697     7.455319950   0   0   0 # oh
    126      1   3 -0.300000    54.298582515     5.806978446     8.301283950   0   0   0 # oz
    127      1   4  0.000000    52.946330418     7.560865468     9.877543950   0   0   0 # o
    128      1   4  0.000000    55.571953240     7.634429216     9.709711950   0   0   0 # o
    129      1   8 -0.568800    54.259141829    10.747894842    30.182947950   0   0   0 # oh
    130      1   4  0.000000    55.566318857    11.271030987    32.484967950   0   0   0 # o
    131      1   4  0.000000    52.935061650     3.986901010     9.895687950   0   0   0 # o
    132      1   5 -0.820000    56.152294766     7.417015811    50.134543950   0   0   0 # o*
    133      1   5 -0.820000    56.169197917    11.458911498    50.202583950   0   0   0 # o*
    134      1   6  0.410000    56.539197543    12.198911599    27.780503849   0   0   0 # h*
    135      1   6  0.410000    56.522304746     8.157029844    29.328592350   0   0   0 # h*
    136      1   6  0.410000    55.042321169     7.417069183    28.588543950   0   0   0 # h*
    137      1   6  0.410000    54.516464134     8.415041294    37.969672350   0   0   0 # h*
    138      1   6  0.410000    53.036480557     7.675080633    37.229623950   0   0   0 # h*
    139      1   1  0.000000    54.214066759     7.643337309    44.085787950   0   0   0 # ca+
    140      1   1  0.000000    57.110140001    13.150051754    46.054411950   0   0   0 # ca+
    141      1   2  0.300000    57.065064931     9.192900921    42.940447950   0   0   0 # sz
    142      1   7  0.218800    56.197369836    11.329952644    40.996771950   0   0   0 # az
    143      1   2  0.300000    57.059430548    13.455867692    42.981271950   0   0   0 # sz
    144      1   3 -0.150000    57.048161780    10.007176234    41.475319950   0   0   0 # oz
    145      1   3 -0.300000    57.115774385     7.649092983    42.321283950   0   0   0 # oz
    146      1   4  0.000000    55.763522288     9.402980005    43.897543950   0   0   0 # o
    147      1   4  0.000000    58.389145110     9.476543753    43.729711950   0   0   0 # o
    148      1   8 -0.568800    54.636645540    11.318974190    41.497999950   0   0   0 # oh
    149      1   3 -0.150000    57.076333699    12.590009379    41.522947950   0   0   0 # oz
    150      1   4  0.000000    58.383510727    13.113145524    43.824967950   0   0   0 # o
    151      1   4  0.000000    55.752253520     5.829015547    43.915687950   0   0   0 # o
    152      1   5 -0.820000    53.335102896     5.574901274    38.794543950   0   0   0 # o*
    153      1   5 -0.820000    53.352006047     9.616796961    38.862583950   0   0   0 # o*
    154      1   6  0.410000    53.722016027    10.356810994    40.600552350   0   0   0 # h*
    155      1   6  0.410000    52.242032450     9.616850333    39.860503950   0   0   0 # h*
    156      1   6  0.410000    53.705112876     6.314915307    40.668592350   0   0   0 # h*
    157      1   6  0.410000    52.225129299     5.574954646    39.928543950   0   0   0 # h*
    158      1   3 -0.150000    56.281885592    11.363109080    39.361543950   0   0   0 # oz
    159      1   1  0.000000    57.031258629    16.854451846    45.977299950   0   0   0 # ca+
    160      1   1  0.000000    54.292948131    18.676937216    44.008675950   0   0   0 # ca+
    161      1   2  0.150000    54.247873061    14.719786384    47.122639950   0   0   0 # sz
    162      1   7  0.218800    53.380177966    16.856838106    49.066315950   0   0   0 # az
    163      1   2  0.300000    54.242238678    18.982753155    47.081815950   0   0   0 # sz
    164      1   4  0.000000    54.230969910    15.534061697    48.587767950   0   0   0 # o
    165      1   3 -0.300000    54.298582515    13.175978446    47.741803950   0   0   0 # oz
    166      1   4  0.000000    52.946330418    14.929865468    46.165543950   0   0   0 # o
    167      1   4  0.000000    55.571953240    15.003429216    46.333375950   0   0   0 # o
    168      1   8 -0.568800    51.819453670    16.845859653    48.565087950   0   0   0 # oh
    169      1   3 -0.150000    54.259141829    18.116894842    48.540139950   0   0   0 # oz
    170      1   4  0.000000    55.566318857    18.640030987    46.238119950   0   0   0 # o
    171      1   4  0.000000    52.935061650    11.355901010    46.147399950   0   0   0 # o
    172      1   5 -0.820000    56.152294766    14.786015811    28.588543950   0   0   0 # o*
    173      1   5 -0.820000    56.169197917    18.827911498    28.520503950   0   0   0 # o*
    174      1   6  0.410000    56.539207897    19.567925531    49.462535550   0   0   0 # h*
    175      1   6  0.410000    55.059224320    18.827964871    50.202583950   0   0   0 # h*
    176      1   6  0.410000    56.522304746    15.526029844    49.394495550   0   0   0 # h*
    177      1   6  0.410000    55.042321169    14.786069183    50.134543950   0   0   0 # h*
    178      1   1  0.000000    54.214066759    15.012337309    34.637299950   0   0   0 # ca+
    179      1   1  0.000000    57.110140001    20.519051754    32.668675950   0   0   0 # ca+
    180      1   2  0.368800    57.065064931    16.561900921    35.782639950   0   0   0 # sz
    181      1   2  0.368800    57.059430548    20.824867692    35.741815950   0   0   0 # sz
    182      1   8 -0.568800    57.048161780    17.376176234    37.247767950   0   0   0 # oh
    183      1   3 -0.300000    57.115774385    15.018092983    36.401803950   0   0   0 # oz
    184      1   4  0.000000    55.763522288    16.771980005    34.825543950   0   0   0 # o
    185      1   4  0.000000    58.389145110    16.845543753    34.993375950   0   0   0 # o
    186      1   8 -0.568800    57.076333699    19.959009379    37.200139950   0   0   0 # oh
    187      1   4  0.000000    58.383510727    20.482145524    34.898119950   0   0   0 # o
    188      1   4  0.000000    55.752253520    13.198015547    34.807399950   0   0   0 # o
    189      1   5 -0.820000    53.335102896    12.943901274    39.928543950   0   0   0 # o*
    190      1   5 -0.820000    53.352006047    16.985796961    39.860503950   0   0   0 # o*
    191      1   6  0.410000    53.722016027    17.725810994    38.122535550   0   0   0 # h*
    192      1   6  0.410000    52.242032450    16.985850333    38.862583950   0   0   0 # h*
    193      1   6  0.410000    53.705112876    13.683915307    38.054495550   0   0   0 # h*
    194      1   6  0.410000    52.225129299    12.943954646    38.794543950   0   0   0 # h*
    195      1   1  0.000000    57.031258629    16.854451846    32.745787950   0   0   0 # ca+
    196      1   1  0.000000    54.292948131    18.676937216    34.714411950   0   0   0 # ca+
    197      1   2  0.368800    54.247873061    14.719786384    31.600447950   0   0   0 # sz
    198      1   2  0.368800    54.242238678    18.982753155    31.641271950   0   0   0 # sz
    199      1   8 -0.568800    54.230969910    15.534061697    30.135319950   0   0   0 # oh
    200      1   3 -0.300000    54.298582515    13.175978446    30.981283950   0   0   0 # oz
    201      1   4  0.000000    52.946330418    14.929865468    32.557543950   0   0   0 # o
    202      1   4  0.000000    55.571953240    15.003429216    32.389711950   0   0   0 # o
    203      1   8 -0.568800    54.259141829    18.116894842    30.182947950   0   0   0 # oh
    204      1   4  0.000000    55.566318857    18.640030987    32.484967950   0   0   0 # o
    205      1   4  0.000000    52.935061650    11.355901010    32.575687950   0   0   0 # o
    206      1   5 -0.820000    56.152294766    14.786015811    50.134543950   0   0   0 # o*
    207      1   5 -0.820000    56.169197917    18.827911498    50.202583950   0   0   0 # o*
    208      1   6  0.410000    56.539207897    19.567925531    29.260552350   0   0   0 # h*
    209      1   6  0.410000    55.059224320    18.827964871    28.520503950   0   0   0 # h*
    210      1   6  0.410000    56.522304746    15.526029844    29.328592350   0   0   0 # h*
    211      1   6  0.410000    55.042321169    14.786069183    28.588543950   0   0   0 # h*
    212      1   1  0.000000    54.214066759    15.012337309    44.085787950   0   0   0 # ca+
    213      1   1  0.000000    57.110140001    20.519051754    46.054411950   0   0   0 # ca+
    214      1   2  0.368800    57.065064931    16.561900921    42.940447950   0   0   0 # sz
    215      1   2  0.368800    57.059430548    20.824867692    42.981271950   0   0   0 # sz
    216      1   8 -0.568800    57.048161780    17.376176234    41.475319950   0   0   0 # oh
    217      1   3 -0.300000    57.115774385    15.018092983    42.321283950   0   0   0 # oz
    218      1   4  0.000000    55.763522288    16.771980005    43.897543950   0   0   0 # o
    219      1   4  0.000000    58.389145110    16.845543753    43.729711950   0   0   0 # o
    220      1   8 -0.568800    57.076333699    19.959009379    41.522947950   0   0   0 # oh
    221      1   4  0.000000    58.383510727    20.482145524    43.824967950   0   0   0 # o
    222      1   4  0.000000    55.752253520    13.198015547    43.915687950   0   0   0 # o
    223      1   5 -0.820000    53.335102896    12.943901274    38.794543950   0   0   0 # o*
    224      1   5 -0.820000    53.352006047    16.985796961    38.862583950   0   0   0 # o*
    225      1   6  0.410000    53.722016027    17.725810994    40.600552350   0   0   0 # h*
    226      1   6  0.410000    52.242032450    16.985850333    39.860503950   0   0   0 # h*
    227      1   6  0.410000    53.705112876    13.683915307    40.668592350   0   0   0 # h*
    228      1   6  0.410000    52.225129299    12.943954646    39.928543950   0   0   0 # h*
    229      1   5 -0.820000    53.464693722    16.889994543    50.701543950   0   0   0 # o*
    230      1   1  0.000000    57.031258629    24.223451846    45.977299950   0   0   0 # ca+
    231      1   1  0.000000    54.292948131    26.045937216    44.008675950   0   0   0 # ca+
    232      1   2  0.368800    54.247873061    22.088786384    47.122639950   0   0   0 # sz
    233      1   2  0.368800    54.242238678    26.351753155    24.401815950   0   0   0 # sz
    234      1   8 -0.568800    54.230969910    22.903061697    48.587767950   0   0   0 # oh
    235      1   3 -0.300000    54.298582515    20.544978446    47.741803950   0   0   0 # oz
    236      1   4  0.000000    52.946330418    22.298865468    46.165543950   0   0   0 # o
    237      1   4  0.000000    55.571953240    22.372429216    46.333375950   0   0   0 # o
    238      1   8 -0.568800    54.259141829    25.485894842    25.860139950   0   0   0 # oh
    239      1   4  0.000000    55.566318857    26.009030987    23.558119950   0   0   0 # o
    240      1   4  0.000000    52.935061650    18.724901010    46.147399950   0   0   0 # o
    241      1   5 -0.820000    56.152294766    22.155015811    28.588543950   0   0   0 # o*
    242      1   5 -0.820000    56.169197917    26.196911498    28.520503950   0   0   0 # o*
    243      1   6  0.410000    56.539207897    26.936925531    49.462535550   0   0   0 # h*
    244      1   6  0.410000    55.059224320    26.196964871    50.202583950   0   0   0 # h*
    245      1   6  0.410000    56.522304746    22.895029844    49.394495550   0   0   0 # h*
    246      1   6  0.410000    55.042321169    22.155069183    50.134543950   0   0   0 # h*
    247      1   9  0.223300    54.516464134    23.153041294    40.753415550   0   0   0 # ho
    248      1   1  0.000000    54.214066759    22.381337309    34.637299950   0   0   0 # ca+
    249      1   1  0.000000    58.242651133    22.350193797    38.340943950   0   0   0 # ca+
    250      1   1  0.000000    57.110140001    27.888051754    32.668675950   0   0   0 # ca+
    251      1   2  0.300000    57.065064931    23.930900921    35.782639950   0   0   0 # sz
    252      1   2  0.450000    56.197369836    26.067952644    37.726315950   0   0   0 # sz
    253      1   2  0.300000    57.059430548    28.193867692    35.741815950   0   0   0 # sz
    254      1   3 -0.300000    57.048161780    24.745176234    37.247767950   0   0   0 # oz
    255      1   3 -0.300000    57.115774385    22.387092983    36.401803950   0   0   0 # oz
    256      1   4  0.000000    55.763522288    24.140980005    34.825543950   0   0   0 # o
    257      1   4  0.000000    58.389145110    24.214543753    34.993375950   0   0   0 # o
    258      1   4  0.000000    54.636645540    26.056974190    37.225087950   0   0   0 # o
    259      1   4 -0.223300    54.146454154    22.413027261    37.229623950   0   0   0 # o
    260      1   3 -0.300000    57.076333699    27.328009379    37.200139950   0   0   0 # oz
    261      1   4  0.000000    58.383510727    27.851145524    34.898119950   0   0   0 # o
    262      1   4  0.000000    55.752253520    20.567015547    34.807399950   0   0   0 # o
    263      1   5 -0.820000    53.335102896    20.312901274    39.928543950   0   0   0 # o*
    264      1   5 -0.820000    53.352006047    24.354796961    39.860503950   0   0   0 # o*
    265      1   6  0.410000    53.722016027    25.094810994    38.122535550   0   0   0 # h*
    266      1   6  0.410000    52.242032450    24.354850333    38.862583950   0   0   0 # h*
    267      1   6  0.410000    53.705112876    21.052915307    38.054495550   0   0   0 # h*
    268      1   6  0.410000    52.225129299    20.312954646    38.794543950   0   0   0 # h*
    269      1   1  0.000000    57.031258629    24.223451846    32.745787950   0   0   0 # ca+
    270      1   1  0.000000    54.292948131    26.045937216    34.714411950   0   0   0 # ca+
    271      1   2  0.150000    54.247873061    22.088786384    31.600447950   0   0   0 # sz
    272      1   7  0.218800    53.380177966    24.225838106    29.656771950   0   0   0 # az
    273      1   2  0.300000    54.242238678    26.351753155    31.641271950   0   0   0 # sz
    274      1   4  0.000000    54.230969910    22.903061697    30.135319950   0   0   0 # o
    275      1   3 -0.300000    54.298582515    20.544978446    30.981283950   0   0   0 # oz
    276      1   4  0.000000    52.946330418    22.298865468    32.557543950   0   0   0 # o
    277      1   4  0.000000    55.571953240    22.372429216    32.389711950   0   0   0 # o
    278      1   8 -0.568800    51.819453670    24.214859653    30.157999950   0   0   0 # oh
    279      1   3 -0.150000    54.259141829    25.485894842    30.182947950   0   0   0 # oz
    280      1   4  0.000000    55.566318857    26.009030987    32.484967950   0   0   0 # o
    281      1   4  0.000000    52.935061650    18.724901010    32.575687950   0   0   0 # o
    282      1   5 -0.820000    56.152294766    22.155015811    50.134543950   0   0   0 # o*
    283      1   5 -0.820000    56.169197917    26.196911498    50.202583950   0   0   0 # o*
    284      1   6  0.410000    56.539207897    26.936925531    29.260552350   0   0   0 # h*
    285      1   6  0.410000    55.059224320    26.196964871    28.520503950   0   0   0 # h*
    286      1   6  0.410000    56.522304746    22.895029844    29.328592350   0   0   0 # h*
    287      1   6  0.410000    55.042321169    22.155069183    28.588543950   0   0   0 # h*
    288      1   9  0.223300    54.516464134    23.153041294    37.969672350   0   0   0 # ho
    289      1   1  0.000000    54.214066759    22.381337309    44.085787950   0   0   0 # ca+
    290      1   1  0.000000    58.242651133    22.350193797    40.382143950   0   0   0 # ca+
    291      1   1  0.000000    57.110140001    27.888051754    46.054411950   0   0   0 # ca+
    292      1   2  0.300000    57.065064931    23.930900921    42.940447950   0   0   0 # sz
    293      1   2  0.450000    56.197369836    26.067952644    40.996771950   0   0   0 # sz
    294      1   2  0.300000    57.059430548    28.193867692    42.981271950   0   0   0 # sz
    295      1   3 -0.300000    57.048161780    24.745176234    41.475319950   0   0   0 # oz
    296      1   3 -0.300000    57.115774385    22.387092983    42.321283950   0   0   0 # oz
    297      1   4  0.000000    55.763522288    24.140980005    43.897543950   0   0   0 # o
    298      1   4  0.000000    58.389145110    24.214543753    43.729711950   0   0   0 # o
    299      1   4  0.000000    54.636645540    26.056974190    41.497999950   0   0   0 # o
    300      1   4 -0.223300    54.146454154    22.413027261    41.493463950   0   0   0 # o
    301      1   3 -0.300000    57.076333699    27.328009379    41.522947950   0   0   0 # oz
    302      1   4  0.000000    58.383510727    27.851145524    43.824967950   0   0   0 # o
    303      1   4  0.000000    55.752253520    20.567015547    43.915687950   0   0   0 # o
    304      1   5 -0.820000    53.335102896    20.312901274    38.794543950   0   0   0 # o*
    305      1   5 -0.820000    53.352006047    24.354796961    38.862583950   0   0   0 # o*
    306      1   6  0.410000    53.722016027    25.094810994    40.600552350   0   0   0 # h*
    307      1   6  0.410000    52.242032450    24.354850333    39.860503950   0   0   0 # h*
    308      1   6  0.410000    53.705112876    21.052915307    40.668592350   0   0   0 # h*
    309      1   6  0.410000    52.225129299    20.312954646    39.928543950   0   0   0 # h*
    310      1   5 -0.820000    53.464693722    24.258994543    50.701543950   0   0   0 # o*
    311      1   3 -0.300000    56.281885592    26.101109080    39.361543950   0   0   0 # oz
    312      1   1  0.000000    57.031258629    31.592451846    45.977299950   0   0   0 # ca+
    313      1   1  0.000000    54.292948131    33.414937216    44.008675950   0   0   0 # ca+
    314      1   2  0.300000    54.247873061    29.457786384    24.442639950   0   0   0 # sz