LAMMPS data file. msi2lmp v3.9.9 / 05 Nov 2018 / CGCMM for 11-2

  27180 atoms
      0 bonds
      0 angles
      0 dihedrals
      0 impropers

   9 atom types

     0.632725848    59.021825848 xlo xhi
    -1.017095300    57.934904700 ylo yhi
    -0.143030200   101.313669800 zlo zhi

Masses

   1  40.079800 # ca+
   2  28.086000 # sz
   3  26.982000 # az
   4  15.999400 # o
   5  15.999400 # oz
   6  15.999400 # oh
   7  15.999400 # o*
   8   1.007970 # h*
   9   1.007970 # ho

Atoms # full

      1      1   1  0.000000    57.031258629     2.116451846    91.232473645   0   0   0 # ca+
      2      1   1  0.000000    54.292948131     3.938937216    89.263849645   0   0   0 # ca+
      3      1   2  0.000000    54.247873061    -0.018213616    92.377813645   0   0   0 # sz
      4      1   3  0.000000    53.380177966     2.118838106    94.321489645   0   0   0 # az
      5      1   2  0.000000    54.242238678     4.244753155    92.336989645   0   0   0 # sz
      6      1   4  0.000000    54.230969910     0.796061697    93.842941645   0   0   0 # o
      7      1   5  0.000000    54.298582515    57.389978446    92.996977645   0  -1   0 # oz
      8      1   4  0.000000    52.946330418     0.191865468    91.420717645   0   0   0 # o
      9      1   4  0.000000    55.571953240     0.265429216    91.588549645   0   0   0 # o
     10      1   6  0.000000    51.819453670     2.107859653    93.820261645   0   0   0 # oh
     11      1   5  0.000000    54.259141829     3.378894842    93.795313645   0   0   0 # oz
     12      1   4  0.000000    55.566318857     3.902030987    91.493293645   0   0   0 # o
     13      1   4  0.000000    52.935061650    55.569901010    91.402573645   0  -1   0 # o
     14      1   7  0.000000    56.152294766     0.048015811    73.843717645   0   0   0 # o*
     15      1   7  0.000000    56.169197917     4.089911498    73.775677645   0   0   0 # o*
     16      1   8  0.000000    56.539207897     4.829925531    94.717709245   0   0   0 # h*
     17      1   8  0.000000    55.059224320     4.089964871    95.457757645   0   0   0 # h*
     18      1   8  0.000000    56.522304746     0.788029844    94.649669245   0   0   0 # h*
     19      1   8  0.000000    55.042321169     0.048069183    95.389717645   0   0   0 # h*
     20      1   8  0.000000    54.516464134     1.046041294    86.008589245   0   0   0 # h*
     21      1   8  0.000000    53.036480557     0.306080633    86.748637645   0   0   0 # h*
     22      1   1  0.000000    54.214066759     0.274337309    79.892473645   0   0   0 # ca+
     23      1   1  0.000000    57.110140001     5.781051754    77.923849645   0   0   0 # ca+
     24      1   2  0.000000    57.065064931     1.823900921    81.037813645   0   1   0 # sz
     25      1   2  0.000000    57.059430548     6.086867692    80.996989645   0   0   0 # sz
     26      1   6  0.000000    57.048161780     2.638176234    82.502941645   0   1   0 # oh
     27      1   5  0.000000    57.115774385     0.280092983    81.656977645   0   1   0 # oz
     28      1   4  0.000000    55.763522288     2.033980005    80.080717645   0   1   0 # o
     29      1   4  0.000000    58.389145110     2.107543753    80.248549645   0   1   0 # o
     30      1   6  0.000000    57.076333699     5.221009379    82.455313645   0   0   0 # oh
     31      1   4  0.000000    58.383510727     5.744145524    80.153293645   0   0   0 # o
     32      1   4  0.000000    55.752253520    57.412015547    80.062573645   0   0   0 # o
     33      1   7  0.000000    53.335102896    57.157901274    85.183717645   0   0   0 # o*
     34      1   7  0.000000    53.352006047     2.247796961    85.115677645   0   0   0 # o*
     35      1   8  0.000000    53.722016027     2.987810994    83.377709245   0   0   0 # h*
     36      1   8  0.000000    52.242032450     2.247850333    84.117757645   0   0   0 # h*
     37      1   8  0.000000    53.705112876    57.897915307    83.309669245   0   0   0 # h*
     38      1   8  0.000000    52.225129299    57.157954646    84.049717645   0   0   0 # h*
     39      1   1  0.000000    57.031258629     2.116451846    78.000961645   0   0   0 # ca+
     40      1   1  0.000000    54.292948131     3.938937216    79.969585645   0   0   0 # ca+
     41      1   2  0.000000    54.247873061    -0.018213616    76.855621645   0   1   0 # sz
     42      1   2  0.000000    54.242238678     4.244753155    76.896445645   0   0   0 # sz
     43      1   6  0.000000    54.230969910     0.796061697    75.390493645   0   1   0 # oh
     44      1   5  0.000000    54.298582515    57.389978446    76.236457645   0   0   0 # oz
     45      1   4  0.000000    52.946330418     0.191865468    77.812717645   0   1   0 # o
     46      1   4  0.000000    55.571953240     0.265429216    77.644885645   0   1   0 # o
     47      1   6  0.000000    54.259141829     3.378894842    75.438121645   0   0   0 # oh
     48      1   4  0.000000    55.566318857     3.902030987    77.740141645   0   0   0 # o
     49      1   4  0.000000    52.935061650    55.569901010    77.830861645   0   0   0 # o
     50      1   7  0.000000    56.152294766     0.048015811    95.389717645   0   0   0 # o*
     51      1   7  0.000000    56.169197917     4.089911498    95.457757645   0   0   0 # o*
     52      1   8  0.000000    56.539207897     4.829925531    74.515726045   0   0   0 # h*
     53      1   8  0.000000    55.059224320     4.089964871    73.775677645   0   0   0 # h*
     54      1   8  0.000000    56.522304746     0.788029844    74.583766045   0   0   0 # h*
     55      1   8  0.000000    55.042321169     0.048069183    73.843717645   0   0   0 # h*
     56      1   1  0.000000    54.214066759     0.274337309    89.340961645   0   0   0 # ca+
     57      1   1  0.000000    58.242651133     0.243193797    85.637317645   0   0   0 # ca+
     58      1   1  0.000000    57.110140001     5.781051754    91.309585645   0   0   0 # ca+
     59      1   2  0.000000    57.065064931     1.823900921    88.195621645   0   0   0 # sz
     60      1   2  0.000000    56.197369836     3.960952644    86.251945645   0   0   0 # sz
     61      1   2  0.000000    57.059430548     6.086867692    88.236445645   0   0   0 # sz
     62      1   5  0.000000    57.048161780     2.638176234    86.730493645   0   0   0 # oz
     63      1   5  0.000000    57.115774385     0.280092983    87.576457645   0   0   0 # oz
     64      1   4  0.000000    55.763522288     2.033980005    89.152717645   0   0   0 # o
     65      1   4  0.000000    58.389145110     2.107543753    88.984885645   0   0   0 # o
     66      1   4  0.000000    54.636645540     3.949974190    86.753173645   0   0   0 # o
     67      1   7  0.000000    54.146454154     0.306027261    86.748637645   0   0   0 # o*
     68      1   5  0.000000    57.076333699     5.221009379    86.778121645   0   0   0 # oz
     69      1   4  0.000000    58.383510727     5.744145524    89.080141645   0   0   0 # o
     70      1   4  0.000000    55.752253520    57.412015547    89.170861645   0  -1   0 # o
     71      1   7  0.000000    53.335102896    57.157901274    84.049717645   0   0   0 # o*
     72      1   7  0.000000    53.352006047     2.247796961    84.117757645   0   0   0 # o*
     73      1   8  0.000000    53.722016027     2.987810994    85.855726045   0   0   0 # h*
     74      1   8  0.000000    52.242032450     2.247850333    85.115677645   0   0   0 # h*
     75      1   8  0.000000    53.705112876    57.897915307    85.923766045   0   0   0 # h*
     76      1   8  0.000000    52.225129299    57.157954646    85.183717645   0   0   0 # h*
     77      1   6  0.000000    56.281885592     3.994109080    84.616717645   0   0   0 # oh
     78      1   1  0.000000    57.031258629     9.485451846    91.232473645   0   0   0 # ca+
     79      1   1  0.000000    54.292948131    11.307937216    89.263849645   0   0   0 # ca+
     80      1   2  0.000000    54.247873061     7.350786384    92.377813645   0   0   0 # sz
     81      1   2  0.000000    53.380177966     9.487838106    94.321489645   0   0   0 # sz
     82      1   2  0.000000    54.242238678    11.613753155    92.336989645   0   0   0 # sz
     83      1   5  0.000000    54.230969910     8.165061697    93.842941645   0   0   0 # oz
     84      1   5  0.000000    54.298582515     5.806978446    92.996977645   0   0   0 # oz
     85      1   4  0.000000    52.946330418     7.560865468    91.420717645   0   0   0 # o
     86      1   4  0.000000    55.571953240     7.634429216    91.588549645   0   0   0 # o
     87      1   4  0.000000    51.819453670     9.476859653    93.820261645   0   0   0 # o
     88      1   7  0.000000    56.963646024     9.517141798    93.824797645   0   0   0 # o*
     89      1   5  0.000000    54.259141829    10.747894842    93.795313645   0   0   0 # oz
     90      1   4  0.000000    55.566318857    11.271030987    91.493293645   0   0   0 # o
     91      1   4  0.000000    52.935061650     3.986901010    91.402573645   0   0   0 # o
     92      1   7  0.000000    56.152294766     7.417015811    73.843717645   0   0   0 # o*
     93      1   7  0.000000    56.169197917    11.458911498    73.775677645   0   0   0 # o*
     94      1   8  0.000000    56.539207897    12.198925531    94.717709245   0   0   0 # h*
     95      1   8  0.000000    55.059224320    11.458964871    95.457757645   0   0   0 # h*
     96      1   8  0.000000    56.522304746     8.157029844    94.649669245   0   0   0 # h*
     97      1   8  0.000000    55.042321169     7.417069183    95.389717645   0   0   0 # h*
     98      1   1  0.000000    54.214066759     7.643337309    79.892473645   0   0   0 # ca+
     99      1   1  0.000000    58.242651133     7.612193797    83.596117645   0   0   0 # ca+
    100      1   1  0.000000    57.110140001    13.150051754    77.923849645   0   0   0 # ca+
    101      1   2  0.000000    57.065064931     9.192900921    81.037813645   0   0   0 # sz
    102      1   2  0.000000    56.197369836    11.329952644    82.981489645   0   0   0 # sz
    103      1   2  0.000000    57.059430548    13.455867692    80.996989645   0   0   0 # sz
    104      1   5  0.000000    57.048161780    10.007176234    82.502941645   0   0   0 # oz
    105      1   5  0.000000    57.115774385     7.649092983    81.656977645   0   0   0 # oz
    106      1   4  0.000000    55.763522288     9.402980005    80.080717645   0   0   0 # o
    107      1   4  0.000000    58.389145110     9.476543753    80.248549645   0   0   0 # o
    108      1   4  0.000000    54.636645540    11.318974190    82.480261645   0   0   0 # o
    109      1   7  0.000000    54.146454154     7.675027261    82.484797645   0   0   0 # o*
    110      1   5  0.000000    57.076333699    12.590009379    82.455313645   0   0   0 # oz
    111      1   4  0.000000    58.383510727    13.113145524    80.153293645   0   0   0 # o
    112      1   4  0.000000    55.752253520     5.829015547    80.062573645   0   0   0 # o
    113      1   7  0.000000    53.335102896     5.574901274    85.183717645   0   0   0 # o*
    114      1   7  0.000000    53.352006047     9.616796961    85.115677645   0   0   0 # o*
    115      1   8  0.000000    53.722016027    10.356810994    83.377709245   0   0   0 # h*
    116      1   8  0.000000    52.242032450     9.616850333    84.117757645   0   0   0 # h*
    117      1   8  0.000000    53.705112876     6.314915307    83.309669245   0   0   0 # h*
    118      1   8  0.000000    52.225129299     5.574954646    84.049717645   0   0   0 # h*
    119      1   1  0.000000    57.031258629     9.485451846    78.000961645   0   0   0 # ca+
    120      1   1  0.000000    54.292948131    11.307937216    79.969585645   0   0   0 # ca+
    121      1   2  0.000000    54.247873061     7.350786384    76.855621645   0   0   0 # sz
    122      1   2  0.000000    54.242238678    11.613753155     8.856445645   0   0   0 # sz
    123      1   6  0.000000    54.230969910     8.165061697    75.390493645   0   0   0 # oh
    124      1   5  0.000000    54.298582515     5.806978446    76.236457645   0   0   0 # oz
    125      1   4  0.000000    52.946330418     7.560865468    77.812717645   0   0   0 # o
    126      1   4  0.000000    55.571953240     7.634429216    77.644885645   0   0   0 # o
    127      1   6  0.000000    54.259141829    10.747894842     7.398121645   0   0   0 # oh
    128      1   4  0.000000    55.566318857    11.271030987     9.700141645   0   0   0 # o
    129      1   4  0.000000    52.935061650     3.986901010    77.830861645   0   0   0 # o
    130      1   7  0.000000    56.152294766     7.417015811    95.389717645   0   0   0 # o*
    131      1   7  0.000000    56.169197917    11.458911498    95.457757645   0   0   0 # o*
    132      1   8  0.000000    56.539207897    12.198925531    74.515726045   0   0   0 # h*
    133      1   8  0.000000    55.059224320    11.458964871    73.775677645   0   0   0 # h*
    134      1   8  0.000000    56.522304746     8.157029844    74.583766045   0   0   0 # h*
    135      1   8  0.000000    55.042321169     7.417069183    73.843717645   0   0   0 # h*
    136      1   8  0.000000    54.516464134     8.415041294    83.224846045   0   0   0 # h*
    137      1   8  0.000000    53.036480557     7.675080633    82.484797645   0   0   0 # h*
    138      1   1  0.000000    54.214066759     7.643337309    89.340961645   0   0   0 # ca+
    139      1   1  0.000000    57.110140001    13.150051754    91.309585645   0   0   0 # ca+
    140      1   2  0.000000    57.065064931     9.192900921    88.195621645   0   0   0 # sz
    141      1   2  0.000000    57.059430548    13.455867692    88.236445645   0   0   0 # sz
    142      1   6  0.000000    57.048161780    10.007176234    86.730493645   0   0   0 # oh
    143      1   5  0.000000    57.115774385     7.649092983    87.576457645   0   0   0 # oz
    144      1   4  0.000000    55.763522288     9.402980005    89.152717645   0   0   0 # o
    145      1   4  0.000000    58.389145110     9.476543753    88.984885645   0   0   0 # o
    146      1   6  0.000000    57.076333699    12.590009379    86.778121645   0   0   0 # oh
    147      1   4  0.000000    58.383510727    13.113145524    89.080141645   0   0   0 # o
    148      1   4  0.000000    55.752253520     5.829015547    89.170861645   0   0   0 # o
    149      1   7  0.000000    53.335102896     5.574901274    84.049717645   0   0   0 # o*
    150      1   7  0.000000    53.352006047     9.616796961    84.117757645   0   0   0 # o*
    151      1   8  0.000000    53.722016027    10.356810994    85.855726045   0   0   0 # h*
    152      1   8  0.000000    52.242032450     9.616850333    85.115677645   0   0   0 # h*
    153      1   8  0.000000    53.705112876     6.314915307    85.923766045   0   0   0 # h*
    154      1   8  0.000000    52.225129299     5.574954646    85.183717645   0   0   0 # h*
    155      1   8  0.000000    57.333656004    10.257155831    94.564846045   0   0   0 # h*
    156      1   8  0.000000    55.853672427     9.517195170    93.824797645   0   0   0 # h*
    157      1   6  0.000000    53.464693722     9.520994543    95.956717645   0   0   0 # oh
    158      1   6  0.000000    56.281885592    11.363109080    84.616717645   0   0   0 # oh
    159      1   1  0.000000    57.031258629    16.854451846    91.232473645   0   0   0 # ca+
    160      1   1  0.000000    55.425459263    13.139079260    94.936117645   0   0   0 # ca+
    161      1   1  0.000000    54.292948131    18.676937216    89.263849645   0   0   0 # ca+
    162      1   2  0.000000    54.247873061    14.719786384    92.377813645   0   0   0 # sz
    163      1   3  0.000000    53.380177966    16.856838106    94.321489645   0   0   0 # az
    164      1   2  0.000000    54.242238678    18.982753155    92.336989645   0   0   0 # sz
    165      1   5  0.000000    54.230969910    15.534061697    93.842941645   0   0   0 # oz
    166      1   5  0.000000    54.298582515    13.175978446    92.996977645   0   0   0 # oz
    167      1   4  0.000000    52.946330418    14.929865468    91.420717645   0   0   0 # o
    168      1   4  0.000000    55.571953240    15.003429216    91.588549645   0   0   0 # o
    169      1   6  0.000000    51.819453670    16.845859653    93.820261645   0   0   0 # oh
    170      1   5  0.000000    54.259141829    18.116894842    93.795313645   0   0   0 # oz
    171      1   4  0.000000    55.566318857    18.640030987    91.493293645   0   0   0 # o
    172      1   4  0.000000    52.935061650    11.355901010    91.402573645   0   0   0 # o
    173      1   7  0.000000    56.152294766    14.786015811    73.843717645   0   0   0 # o*
    174      1   7  0.000000    56.169197917    18.827911498    73.775677645   0   0   0 # o*
    175      1   8  0.000000    56.539207897    19.567925531    94.717709245   0   0   0 # h*
    176      1   8  0.000000    55.059224320    18.827964871    95.457757645   0   0   0 # h*
    177      1   8  0.000000    56.522304746    15.526029844    94.649669245   0   0   0 # h*
    178      1   8  0.000000    55.042321169    14.786069183    95.389717645   0   0   0 # h*
    179      1   1  0.000000    54.214066759    15.012337309    79.892473645   0   0   0 # ca+
    180      1   1  0.000000    57.110140001    20.519051754    77.923849645   0   0   0 # ca+
    181      1   2  0.000000    57.065064931    16.561900921    81.037813645   0   0   0 # sz
    182      1   3  0.000000    56.197369836    18.698952644    82.981489645   0   0   0 # az
    183      1   2  0.000000    57.059430548    20.824867692    80.996989645   0   0   0 # sz
    184      1   4  0.000000    57.048161780    17.376176234    82.502941645   0   0   0 # o
    185      1   5  0.000000    57.115774385    15.018092983    81.656977645   0   0   0 # oz
    186      1   4  0.000000    55.763522288    16.771980005    80.080717645   0   0   0 # o
    187      1   4  0.000000    58.389145110    16.845543753    80.248549645   0   0   0 # o
    188      1   6  0.000000    54.636645540    18.687974190    82.480261645   0   0   0 # oh
    189      1   5  0.000000    57.076333699    19.959009379    82.455313645   0   0   0 # oz
    190      1   4  0.000000    58.383510727    20.482145524    80.153293645   0   0   0 # o
    191      1   4  0.000000    55.752253520    13.198015547    80.062573645   0   0   0 # o
    192      1   7  0.000000    53.335102896    12.943901274    85.183717645   0   0   0 # o*
    193      1   7  0.000000    53.352006047    16.985796961    85.115677645   0   0   0 # o*
    194      1   8  0.000000    53.722016027    17.725810994    83.377709245   0   0   0 # h*
    195      1   8  0.000000    52.242032450    16.985850333    84.117757645   0   0   0 # h*
    196      1   8  0.000000    53.705112876    13.683915307    83.309669245   0   0   0 # h*
    197      1   8  0.000000    52.225129299    12.943954646    84.049717645   0   0   0 # h*
    198      1   8  0.000000    57.333656004    17.626155831    74.668589245   0   0   0 # h*
    199      1   8  0.000000    55.853672427    16.886195170    75.408637645   0   0   0 # h*
    200      1   1  0.000000    57.031258629    16.854451846    78.000961645   0   0   0 # ca+
    201      1   1  0.000000    54.292948131    18.676937216    79.969585645   0   0   0 # ca+
    202      1   2  0.000000    54.247873061    14.719786384     8.815621645   0   0   0 # sz
    203      1   2  0.000000    53.380177966    16.856838106     6.871945645   0   0   0 # sz
    204      1   2  0.000000    54.242238678    18.982753155     8.856445645   0   0   0 # sz
    205      1   5  0.000000    54.230969910    15.534061697     7.350493645   0   0   0 # oz
    206      1   5  0.000000    54.298582515    13.175978446     8.196457645   0   0   0 # oz
    207      1   4  0.000000    52.946330418    14.929865468     9.772717645   0   0   0 # o
    208      1   4  0.000000    55.571953240    15.003429216     9.604885645   0   0   0 # o
    209      1   4  0.000000    51.819453670    16.845859653     7.373173645   0   0   0 # o
    210      1   7  0.000000    56.963646024    16.886141798    75.408637645   0   0   0 # o*
    211      1   5  0.000000    54.259141829    18.116894842     7.398121645   0   0   0 # oz
    212      1   4  0.000000    55.566318857    18.640030987     9.700141645   0   0   0 # o
    213      1   4  0.000000    52.935061650    11.355901010     9.790861645   0   0   0 # o
    214      1   7  0.000000    56.152294766    14.786015811    95.389717645   0   0   0 # o*
    215      1   7  0.000000    56.169197917    18.827911498    95.457757645   0   0   0 # o*
    216      1   8  0.000000    56.539207897    19.567925531    74.515726045   0   0   0 # h*
    217      1   8  0.000000    55.059224320    18.827964871    73.775677645   0   0   0 # h*
    218      1   8  0.000000    56.522304746    15.526029844    74.583766045   0   0   0 # h*
    219      1   8  0.000000    55.042321169    14.786069183    73.843717645   0   0   0 # h*
    220      1   1  0.000000    54.214066759    15.012337309    89.340961645   0   0   0 # ca+
    221      1   1  0.000000    57.110140001    20.519051754    91.309585645   0   0   0 # ca+
    222      1   2  0.000000    57.065064931    16.561900921    88.195621645   0   0   0 # sz
    223      1   2  0.000000    57.059430548    20.824867692    88.236445645   0   0   0 # sz
    224      1   6  0.000000    57.048161780    17.376176234    86.730493645   0   0   0 # oh
    225      1   5  0.000000    57.115774385    15.018092983    87.576457645   0   0   0 # oz
    226      1   4  0.000000    55.763522288    16.771980005    89.152717645   0   0   0 # o
    227      1   4  0.000000    58.389145110    16.845543753    88.984885645   0   0   0 # o
    228      1   6  0.000000    57.076333699    19.959009379    86.778121645   0   0   0 # oh
    229      1   4  0.000000    58.383510727    20.482145524    89.080141645   0   0   0 # o
    230      1   4  0.000000    55.752253520    13.198015547    89.170861645   0   0   0 # o
    231      1   7  0.000000    53.335102896    12.943901274    84.049717645   0   0   0 # o*
    232      1   7  0.000000    53.352006047    16.985796961    84.117757645   0   0   0 # o*
    233      1   8  0.000000    53.722016027    17.725810994    85.855726045   0   0   0 # h*
    234      1   8  0.000000    52.242032450    16.985850333    85.115677645   0   0   0 # h*
    235      1   8  0.000000    53.705112876    13.683915307    85.923766045   0   0   0 # h*
    236      1   8  0.000000    52.225129299    12.943954646    85.183717645   0   0   0 # h*
    237      1   6  0.000000    53.464693722    16.889994543     5.236717645   0   0   0 # oh
    238      1   1  0.000000    57.031258629    24.223451846    91.232473645   0   0   0 # ca+
    239      1   1  0.000000    54.292948131    26.045937216    89.263849645   0   0   0 # ca+
    240      1   2  0.000000    54.247873061    22.088786384    92.377813645   0   0   0 # sz
    241      1   2  0.000000    53.380177966    24.225838106    94.321489645   0   0   0 # sz
    242      1   2  0.000000    54.242238678    26.351753155    92.336989645   0   0   0 # sz
    243      1   5  0.000000    54.230969910    22.903061697    93.842941645   0   0   0 # oz
    244      1   5  0.000000    54.298582515    20.544978446    92.996977645   0   0   0 # oz
    245      1   4  0.000000    52.946330418    22.298865468    91.420717645   0   0   0 # o
    246      1   4  0.000000    55.571953240    22.372429216    91.588549645   0   0   0 # o
    247      1   4  0.000000    51.819453670    24.214859653    93.820261645   0   0   0 # o
    248      1   7  0.000000    56.963646024    24.255141798    93.824797645   0   0   0 # o*
    249      1   5  0.000000    54.259141829    25.485894842    93.795313645   0   0   0 # oz
    250      1   4  0.000000    55.566318857    26.009030987    91.493293645   0   0   0 # o
    251      1   4  0.000000    52.935061650    18.724901010    91.402573645   0   0   0 # o
    252      1   7  0.000000    56.152294766    22.155015811    73.843717645   0   0   0 # o*
    253      1   7  0.000000    56.169197917    26.196911498    73.775677645   0   0   0 # o*
    254      1   8  0.000000    56.539207897    26.936925531    94.717709245   0   0   0 # h*
    255      1   8  0.000000    55.059224320    26.196964871    95.457757645   0   0   0 # h*
    256      1   8  0.000000    56.522304746    22.895029844    94.649669245   0   0   0 # h*
    257      1   8  0.000000    55.042321169    22.155069183    95.389717645   0   0   0 # h*
    258      1   1  0.000000    54.214066759    22.381337309    79.892473645   0   0   0 # ca+
    259      1   1  0.000000    58.242651133    22.350193797    83.596117645   0   0   0 # ca+
    260      1   1  0.000000    57.110140001    27.888051754    77.923849645   0   0   0 # ca+
    261      1   2  0.000000    57.065064931    23.930900921    81.037813645   0   0   0 # sz
    262      1   2  0.000000    56.197369836    26.067952644    82.981489645   0   0   0 # sz
    263      1   2  0.000000    57.059430548    28.193867692    80.996989645   0   0   0 # sz
    264      1   5  0.000000    57.048161780    24.745176234    82.502941645   0   0   0 # oz
    265      1   5  0.000000    57.115774385    22.387092983    81.656977645   0   0   0 # oz
    266      1   4  0.000000    55.763522288    24.140980005    80.080717645   0   0   0 # o
    267      1   4  0.000000    58.389145110    24.214543753    80.248549645   0   0   0 # o
    268      1   4  0.000000    54.636645540    26.056974190    82.480261645   0   0   0 # o
    269      1   7  0.000000    54.146454154    22.413027261    82.484797645   0   0   0 # o*
    270      1   5  0.000000    57.076333699    27.328009379    82.455313645   0   0   0 # oz
    271      1   4  0.000000    58.383510727    27.851145524    80.153293645   0   0   0 # o
    272      1   4  0.000000    55.752253520    20.567015547    80.062573645   0   0   0 # o
    273      1   7  0.000000    53.335102896    20.312901274    85.183717645   0   0   0 # o*
    274      1   7  0.000000    53.352006047    24.354796961    85.115677645   0   0   0 # o*
    275      1   8  0.000000    53.722016027    25.094810994    83.377709245   0   0   0 # h*
    276      1   8  0.000000    52.242032450    24.354850333    84.117757645   0   0   0 # h*
    277      1   8  0.000000    53.705112876    21.052915307    83.309669245   0   0   0 # h*
    278      1   8  0.000000    52.225129299    20.312954646    84.049717645   0   0   0 # h*
    279      1   1  0.000000    57.031258629    24.223451846    78.000961645   0   0   0 # ca+
    280      1   1  0.000000    55.425459263    20.508079260    74.297317645   0   0   0 # ca+
    281      1   1  0.000000    54.292948131    26.045937216    79.969585645   0   0   0 # ca+
    282      1   2  0.000000    54.247873061    22.088786384     8.815621645   0   0   0 # sz
    283      1   2  0.000000    54.242238678    26.351753155    76.896445645   0   0   0 # sz
    284      1   6  0.000000    54.230969910    22.903061697     7.350493645   0   0   0 # oh
    285      1   5  0.000000    54.298582515    20.544978446     8.196457645   0   0   0 # oz
    286      1   4  0.000000    52.946330418    22.298865468     9.772717645   0   0   0 # o
    287      1   4  0.000000    55.571953240    22.372429216     9.604885645   0   0   0 # o
    288      1   6  0.000000    54.259141829    25.485894842    75.438121645   0   0   0 # oh
    289      1   4  0.000000    55.566318857    26.009030987    77.740141645   0   0   0 # o
    290      1   4  0.000000    52.935061650    18.724901010     9.790861645   0   0   0 # o
    291      1   7  0.000000    56.152294766    22.155015811    95.389717645   0   0   0 # o*
    292      1   7  0.000000    56.169197917    26.196911498    95.457757645   0   0   0 # o*
    293      1   8  0.000000    56.539207897    26.936925531    74.515726045   0   0   0 # h*
    294      1   8  0.000000    55.059224320    26.196964871    73.775677645   0   0   0 # h*
    295      1   8  0.000000    56.522304746    22.895029844    74.583766045   0   0   0 # h*
    296      1   8  0.000000    55.042321169    22.155069183    73.843717645   0   0   0 # h*
    297      1   8  0.000000    54.516464134    23.153041294    83.224846045   0   0   0 # h*
    298      1   8  0.000000    53.036480557    22.413080633    82.484797645   0   0   0 # h*
    299      1   1  0.000000    54.214066759    22.381337309    89.340961645   0   0   0 # ca+
    300      1   1  0.000000    57.110140001    27.888051754    91.309585645   0   0   0 # ca+
    301      1   2  0.000000    57.065064931    23.930900921    88.195621645   0   0   0 # sz
    302      1   3  0.000000    56.197369836    26.067952644    86.251945645   0   0   0 # az
    303      1   2  0.000000    57.059430548    28.193867692    88.236445645   0   0   0 # sz
    304      1   5  0.000000    57.048161780    24.745176234    86.730493645   0   0   0 # oz
    305      1   5  0.000000    57.115774385    22.387092983    87.576457645   0   0   0 # oz
    306      1   4  0.000000    55.763522288    24.140980005    89.152717645   0   0   0 # o
    307      1   4  0.000000    58.389145110    24.214543753    88.984885645   0   0   0 # o
    308      1   6  0.000000    54.636645540    26.056974190    86.753173645   0   0   0 # oh
    309      1   5  0.000000    57.076333699    27.328009379    86.778121645   0   0   0 # oz
    310      1   4  0.000000    58.383510727    27.851145524    89.080141645   0   0   0 # o
    311      1   4  0.000000    55.752253520    20.567015547    89.170861645   0   0   0 # o
    312      1   7  0.000000    53.335102896    20.312901274    84.049717645   0   0   0 # o*
    313      1   7  0.000000    53.352006047    24.354796961    84.117757645   0   0   0 # o*
    314      1   8  0.000000    53.722016027    25.094810994    85.855726045   0   0   0 # h*