ITEM: TIMESTEP
440000
ITEM: NUMBER OF ATOMS
25517
ITEM: BOX BOUNDS pp pp ff
-3.8959205201285124e-01 6.0088135642019459e+01
-1.9452389155355383e+00 5.9115524189537531e+01
-1.2206056431032383e+01 1.1390111600702880e+02
ITEM: ATOMS id type x y z v_stressx v_stressy v_stressz 
25292 7 5.89857 3.03966 7.5916 -2.50694 -8.49595 -6.21528 
25293 7 5.98077 1.53035 7.7064 -1.9239 -5.90722 -1.93449 
25252 6 5.35811 2.25094 7.51796 -6.31373 -3.24124 0.232446 
25287 5 0.61597 0.755495 10.7564 7.85739 -1.76972 3.7439 
25283 5 2.94291 4.2301 9.842 11.0652 6.54173 -12.9555 
25281 4 1.3887 2.44216 9.07367 -12.5818 1.88442 -15.9371 
25280 4 1.07853 5.00258 8.46007 -12.8759 -8.66041 -6.88303 
25277 2 1.45655 3.94107 9.49571 50.526 35.5703 78.8354 
25215 5 2.99957 0.588718 9.72621 -14.4593 -10.0909 -12.1173 
25209 2 1.59287 0.935181 9.44522 8.31972 -58.921 73.3407 
25188 1 4.8243 2.58953 9.97468 5.34598 1.23514 14.3897 
25214 3 0.796635 0.0137284 8.44439 -1.64813 -4.56209 2.56145 
25282 5 0.520916 4.37471 10.6565 -15.2033 -14.5989 -18.7191 
25458 9 1.40812 -0.435335 7.83607 0.0175626 2.11466 1.73367 
25206 1 4.52732 -1.17961 10.115 34.8075 37.857 20.3376 
22660 5 6.52822 0.875659 10.2203 -1.50442 -5.88108 -16.2597 
22735 5 6.623 4.87348 10.5536 2.19113 -9.15917 -14.3512 
25505 7 1.83983 5.65447 5.50835 -0.0567807 -0.164081 -0.297649 
22662 3 7.17647 4.29529 8.22411 -11.9614 -23.1576 -18.4666 
22658 3 7.30314 0.346889 7.89736 -14.9368 -15.2015 -11.3376 
22905 9 7.65252 -0.485879 7.46068 0.0219471 -0.415797 -4.4787 
22906 9 7.50322 4.57024 7.35908 -2.76799 4.33827 9.70605 
20115 7 11.1372 2.292 6.49758 0.444613 -0.0071721 -1.14563 
22656 2 7.7059 0.365729 9.40584 21.6554 73.8765 60.6438 
20116 7 12.1136 2.88755 7.40659 19.6612 6.70616 2.69932 
20078 6 11.1398 2.86581 7.23657 -15.9314 -11.6596 1.67737 
20106 3 13.741 4.72985 7.46261 -15.7346 -10.9975 42.2425 
22657 2 7.60419 5.1024 9.41016 53.4841 -15.801 21.7043 
20036 3 13.619 0.47741 7.57109 -16.5337 -19.5283 16.779 
20107 4 13.6664 2.6833 8.8298 -17.9293 -13.9871 -33.4587 
20104 2 13.8784 4.18168 8.97251 31.2809 36.1743 93.894 
20031 2 13.7132 1.1448 8.96008 62.5477 164.106 12.8658 
20108 5 12.6966 4.70757 9.81807 14.751 12.0126 1.74297 
20112 5 12.4932 0.846951 9.91178 10.9358 -0.438972 6.17623 
22654 1 10.4859 2.78478 9.68506 11.379 10.0489 10.8662 
22661 5 9.03983 1.11007 9.56315 -7.40919 -6.48751 -15.9093 
22663 5 9.10858 4.7108 9.73761 4.30304 -12.8908 -15.4585 
22563 1 10.886 -1.13469 10.1589 -0.96556 -0.462529 -24.729 
22659 4 7.7627 -1.12896 9.68153 -9.2947 -34.7715 -34.5435 
22629 6 11.3751 -1.065 7.76545 -16.7537 5.06528 2.64754 
22669 7 11.9249 -0.207968 7.44815 1.29674 5.20474 -1.29689 
20352 9 13.8605 1.22514 6.87465 0.712572 12.5279 14.7177 
20189 7 14.2777 3.18994 6.51456 0.27364 13.5159 8.426 
20353 9 14.543 5.23857 7.22704 7.74786 13.2055 16.8603 
20148 6 14.5671 2.45013 5.87332 0.145043 0.0576166 0.0961324 
22740 7 11.2703 5.5881 6.8279 3.28422 1.48029 -1.19229 
22738 7 8.76742 5.41578 5.90114 -0.681448 0.698628 -1.34376 
22701 6 7.85394 5.37142 5.69312 0.461932 -0.311758 7.81379 
22739 7 7.886 4.86164 4.87022 -0.0110571 0.0202456 0.00862468 
22670 7 11.9327 -1.89861 7.72342 1.04498 1.64639 -5.27513 
20188 7 15.4435 2.20345 6.22553 0.812189 -0.138693 0.0858997 
20037 5 15.0057 0.565552 9.66218 -1.00332 -7.08949 -12.8596 
20118 7 17.8719 2.63796 7.70159 5.65518 -0.340155 -2.96375 
20117 7 17.6995 1.17882 7.44002 3.0102 2.54667 -4.70751 
17799 9 19.455 -0.241526 7.33338 0.306452 6.59471 17.9523 
20077 6 17.1284 2.01775 7.60787 -23.1746 2.37739 26.863 
17484 3 19.536 4.02271 8.03155 -4.18223 -2.52454 -2.2748 
20109 5 15.1822 4.68195 9.53593 -5.69866 -7.2513 -17.2549 
17480 3 19.3808 0.510653 7.95906 -16.4171 -31.9877 10.8475 
17478 2 19.7385 0.13463 9.405 32.2548 34.5786 48.0762 
17479 2 19.7269 4.90401 9.32133 46.4174 113.109 59.8484 
17485 5 21.0972 4.45706 9.83859 4.99177 -15.9441 -16.3603 
17483 5 21.125 0.57616 9.92672 5.15507 -9.98792 -13.4024 
17482 5 18.7273 0.612358 10.4453 0.914631 -3.58398 -6.13702 
17560 5 18.5746 4.39351 10.2378 -1.27234 1.48754 -11.0614 
20011 1 16.7883 2.43064 10.1919 50.8253 46.0465 51.1295 
20028 1 16.5417 -1.33752 10.1131 23.5412 17.157 9.43718 
17481 4 19.613 -1.37684 9.30614 -12.3152 -19.7048 -37.7792 
17800 9 20.2785 3.41394 7.96437 0.304559 -2.90542 -5.47614 
20002 6 16.2002 -1.21507 7.53432 -10.4572 -7.52137 13.3749 
20044 7 15.5857 -0.449442 7.68688 4.36678 8.57137 -2.86556 
20043 7 16.3516 -1.12082 6.60323 0.282618 0.199584 -0.833741 
17377 6 19.8786 -1.6773 6.3322 0.248044 -0.138519 -0.011067 
17415 7 20.5742 -1.92657 6.98281 2.83918 2.47976 2.05205 
14864 7 23.6314 3.83266 7.75133 5.59525 -4.6951 -1.42665 
14825 6 23.2988 2.969 7.82153 -9.30155 -3.78914 1.38106 
14863 7 24.1611 2.53617 7.90018 3.88308 -1.33429 -0.575799 
17476 1 22.5994 2.5974 10.2549 -65.4064 -40.8123 54.8093 
14928 3 25.5679 4.59148 8.20809 -31.2667 -49.8623 -46.4812 
15246 9 24.7065 0.00657495 8.04332 8.01302 10.7786 20.1429 
14856 3 25.5405 0.383335 8.16649 -12.6397 -14.7661 10.5586 
14929 4 25.6618 2.47021 9.27814 -17.8263 -35.3228 -33.9772 
14851 2 25.7726 0.935136 9.6021 19.8782 -189.841 76.4116 
14926 2 25.8313 3.99121 9.61155 28.6698 145.581 88.1107 
14857 5 27.172 0.513951 10.0212 -9.45786 -11.8137 -21.0499 
14931 5 27.2703 4.30837 10.1061 -28.3971 -11.4914 -17.8773 
14832 1 28.9014 2.41808 10.4207 14.0964 11.8584 44.4827 
14930 5 24.8007 4.37565 10.6576 12.4768 -4.42093 -13.2983 
14934 5 24.7275 0.511689 10.6576 4.45976 -3.85419 -0.815063 
17384 1 22.8636 -1.16741 10.5973 -1.75543 4.22339 -16.495 
14848 1 28.7231 -1.43222 10.2624 14.6005 18.8335 -5.09089 
14898 6 29.1786 2.45721 7.88738 -13.6921 -15.4307 6.07082 
15247 9 26.3681 4.66526 7.72718 -1.61937 -1.09474 -15.3155 
14826 6 28.1456 -1.3901 7.71182 1.43181 -3.42924 26.4224 
14861 7 27.5228 -0.59177 7.7367 4.98845 5.85309 -2.17202 
14862 7 28.7608 -1.17174 6.9734 0.155668 0.0380312 -0.0647628 
17565 7 23.8543 5.62398 7.62904 12.5463 3.74651 -1.50124 
17491 7 23.3409 -0.830267 7.25909 0.0973522 0.0708987 -0.456201 
12347 6 29.4782 5.3719 8.00631 -15.2547 -7.13267 4.23992 
14939 7 29.2544 3.33895 7.63004 0.448425 -0.918452 -1.21084 
17492 7 24.1978 -1.77871 8.08715 8.23429 2.44522 -6.0396 
17450 6 23.2929 -1.42611 8.02021 -21.6704 -6.96048 18.7225 
25291 7 5.22591 6.53661 7.32751 1.17565 1.65692 -3.16431 
25290 7 3.82687 6.55555 6.86919 -0.68645 1.64799 -4.38315 
25253 6 4.33607 6.71227 7.63615 -9.62902 -11.6188 1.88638 
25517 7 1.84279 7.29014 5.50902 -0.0260276 -0.0600284 -0.55223 
25313 6 1.21101 6.45671 5.78137 6.03536 -5.10302 30.2223 
25362 7 1.19888 10.608 6.31952 -0.0149652 -0.0041437 -0.0195191 
25275 1 4.36027 6.50413 10.1833 3.68732 12.7234 8.65817 
25278 8 0.639374 6.49188 7.63496 52.9646 31.5498 9.52171 
22958 9 3.89074 10.3239 7.2783 -3.46452 1.50764 0.250735 
22732 3 4.70032 10.3548 7.96195 2.38934 -12.6014 13.9063 
25359 5 0.701437 8.49354 11.0939 -9.8752 -10.1383 -16.7964 
25356 5 3.08021 12.146 10.2169 9.91129 -0.169313 -13.2578 
25355 5 0.535314 12.2845 10.6518 -2.63979 -5.54387 -8.16384 
25354 4 1.48185 10.2856 9.54639 -13.6007 14.0251 -26.7316 
25353 3 1.39194 12.6945 8.41831 -14.247 -8.99221 3.26112 
25351 2 1.63225 11.8296 9.72046 39.4004 48.6459 66.02 
25286 5 2.93236 8.28049 10.0288 -5.58917 -16.0494 -19.4691 
25285 4 0.892127 7.85648 8.74192 -20.7393 -18.5527 -4.85981 
25279 2 1.49492 8.71367 9.83417 16.01 97.9204 78.3961 
25259 1 4.86194 10.2149 10.3927 7.60648 9.42605 50.1122 
25327 6 1.60703 9.7444 6.34125 2.32134 1.29162 -0.86676 
25363 7 1.38635 9.50649 7.2315 0.509997 2.76482 1.46233 
22807 5 6.5607 12.2849 10.8694 -15.8259 -14.5895 -17.9783 
22730 5 6.65234 8.34528 10.5398 -4.82038 -14.745 -13.9906 
22726 8 6.48614 10.4372 7.49213 -1.66812 17.8743 -26.4705 
22761 6 7.05704 10.8316 5.66761 1.7589 2.5072 6.82842 
22733 4 6.9844 11.7221 8.61372 -10.8234 -12.6803 -2.35703 
22728 4 7.23016 9.05362 8.29312 -12.8598 -20.2755 -5.66546 
22953 7 7.91026 10.1976 5.3838 -0.0661575 0.100289 -0.652052 
22965 7 7.33207 11.8331 5.45166 -0.0484527 0.141665 -0.276857 
22741 7 11.5 7.01103 7.05421 2.60695 -0.0349011 -1.57057 
22700 6 10.8104 6.36788 7.23855 -16.1075 -2.07447 18.683 
22636 1 10.9188 6.69179 9.82281 4.6423 9.59873 12.354 
22729 4 7.48133 6.61374 9.11192 -11.1363 -8.69683 -27.754 
22668 7 10.5831 8.59932 7.42923 1.90928 4.34517 -3.21797 
22725 2 7.70374 8.13304 9.39568 26.8963 31.5585 97.6734 
22727 2 7.53968 12.6129 9.75953 16.4969 132.96 80.813 
22630 6 10.7174 9.56513 7.55044 -8.20373 0.725483 5.33934 
22667 7 11.6785 9.56 7.58776 1.27146 0.731074 -1.32123 
20110 3 13.3722 8.00482 7.87861 -10.9388 -1.1299 -3.75032 
20176 4 13.3404 12.979 8.33811 -6.5908 -6.93844 -4.10701 
20177 4 13.5478 10.5013 8.95979 -6.21359 -0.333462 -16.3571 
20173 2 13.7057 11.9908 9.40771 33.5061 -5.25386 77.3551 
20105 2 13.7244 8.93675 9.12343 -2.09998 6.98529 85.5278 
20178 5 12.5598 12.2564 10.4158 -7.7433 -12.3106 -22.2388 
20183 5 12.8988 8.51128 10.3587 -3.55122 -11.1645 -7.74422 
22734 5 8.97942 12.4092 10.1072 -12.4376 -12.5421 -17.5857 
22723 1 10.5486 10.4168 9.97488 -3.01059 4.14897 10.0452 
22731 5 9.11607 8.33188 9.85191 -15.5792 -24.2956 -22.4379 
20354 9 13.8366 7.1662 8.02076 -1.16888 -12.3009 -25.4457 
17489 7 15.3685 7.53149 7.27379 -6.2154 -2.27357 -3.77395 
17490 7 16.4114 7.08597 6.51817 -0.225424 0.0334116 -0.310527 
17451 6 15.9423 6.78743 7.29642 -18.6956 -17.2193 17.4372 
17555 4 19.5148 6.40419 9.24816 -10.8252 2.38833 -18.7175 
20102 1 16.4765 6.46221 9.86905 10.8865 0.16881 18.5444 
20179 5 15.0791 12.3713 9.86379 2.66162 3.88199 -11.6707 
20111 5 15.0953 8.51182 9.52882 -26.2083 -13.9525 -14.8068 
17802 9 19.4832 11.878 7.51898 -0.107406 -0.0989684 0.16077 
17554 3 19.6317 8.68088 7.9737 -1.86408 -5.33334 6.15706 
17801 9 19.3812 9.57046 8.10065 0.619268 12.1641 6.30262 
17558 3 19.3121 11.5602 8.35726 -4.0895 -2.05555 -0.0857508 
17552 2 19.7279 7.97853 9.40881 25.0183 57.8501 61.4017 
17553 2 19.7446 12.5897 9.5152 42.5308 43.0763 68.8699 
17559 5 21.2085 12.1329 9.83297 6.83411 -0.567291 -10.9453 
17557 5 21.1128 8.33065 9.93016 0.899844 -11.5699 -16.0318 
17556 5 18.49 8.44005 10.194 12.5182 -3.98242 -7.56046 
17631 5 18.754 12.2185 10.6826 2.23693 -5.58925 -4.33373 
20084 1 16.8199 10.2664 10.3615 -11.1259 -3.94025 -1.08785 
17566 7 22.7737 6.49197 7.09029 0.0942909 0.0189493 0.0520675 
17525 6 23.2369 6.30614 7.97014 -30.0614 -5.98506 16.9404 
15249 9 26.4199 12.3989 7.50271 0.845012 0.686014 0.246967 
14924 1 28.8784 6.30371 10.2599 25.0547 20.039 4.22001 
17459 1 22.8153 6.36449 10.4136 -83.4571 -68.3967 36.3182 
17550 1 22.6813 10.1773 10.109 18.8687 17.7448 8.89367 
15248 9 25.0074 7.30471 8.25379 6.72451 8.87821 8.69653 
15002 3 25.5553 12.1132 7.86039 -4.81806 -8.76715 9.03533 
14932 3 25.8534 7.69566 8.37038 -4.61028 -4.21064 1.43293 
15003 4 25.6929 10.0578 9.40228 -8.95291 -5.964 -23.4011 
15000 2 25.8234 11.5586 9.33827 28.9433 102.636 73.4277 
14927 2 25.9265 8.52626 9.67582 39.3763 66.7165 72.9347 
15005 5 27.2586 12.0307 9.65026 -1.64302 -12.6694 -17.3178 
14933 5 27.3368 8.19806 10.2714 9.42538 -14.0279 -17.5933 
15004 5 24.794 12.1885 10.2281 1.11666 3.07073 -12.9458 
14907 1 29.0423 10.186 10.3202 23.6363 18.7993 22.9963 
15008 5 24.7476 8.17989 10.6591 15.9205 -0.11974 -1.85009 
14899 6 29.4402 9.94521 7.67407 -3.22929 0.0563926 5.42556 
17637 7 24.0129 13.1402 7.48134 1.61012 0.647684 -0.202011 
25427 5 0.471403 16.2254 10.9577 5.98856 -3.42578 -5.09732 
25424 5 3.05777 19.7432 10.2643 -15.0647 -6.45803 -9.63489 
25423 5 0.62854 19.9386 10.7649 4.01353 -4.19941 -10.3477 
25422 4 1.53223 17.8586 9.5283 -9.70216 7.00394 -14.2441 
25421 3 1.35286 20.1653 8.46116 -3.24119 -2.59735 -0.130924 
25419 2 1.68921 19.4163 9.80763 -41.0712 140.038 64.9666 
25358 5 3.0433 15.9649 10.3935 6.23898 -0.934624 -11.5689 
25352 2 1.62447 16.359 9.9389 56.4417 1.5421 36.8731 
25333 1 4.76049 17.9652 10.8964 -6.92891 13.9182 -51.8574 
25357 3 1.27516 15.4524 8.77037 -12.0793 -17.052 18.4548 
25460 9 1.6173 15.8283 7.87293 0.0998638 0.36335 4.21482 
25349 1 4.58657 14.1062 10.6957 7.25804 16.2354 -3.17972 
22803 5 6.49129 16.0975 10.8756 1.1469 -0.340442 -0.0287011 
22875 5 6.46084 20.071 11.1158 20.2284 8.0862 7.61776 
25459 9 1.48999 13.6574 8.56205 -1.57848 4.46473 -4.05831 
22801 3 7.03055 16.5942 8.55987 -2.19515 -6.95782 4.23991 
2179 7 -0.387305 20.8468 8.22815 14.4374 2.24205 -6.3154 
22805 3 7.32975 19.3599 8.91011 -8.4005 -8.64423 26.4951 
22908 9 7.54595 19.9046 8.12021 0.00664534 0.259093 6.53734 
22774 6 7.84223 14.1301 6.46407 2.0441 1.27201 1.87993 
22907 9 7.21638 17.5067 8.66763 -0.0962255 20.2602 1.66204 
22800 2 7.69826 20.1918 10.1825 72.0409 58.1924 37.5083 
22810 7 9.52718 17.6319 7.67339 -2.0439 0.947187 -2.00334 
22775 6 10.3724 17.5576 8.1234 -18.0245 -9.02827 6.41467 
22811 7 11.0269 17.744 7.42304 6.08827 1.05183 -1.17649 
20249 3 13.6146 20.1923 8.5115 -17.3842 -16.101 19.6521 
22799 2 7.50164 15.6895 9.76752 1.65499 20.9877 71.1047 
20181 4 13.1648 15.598 8.7498 -9.68204 -32.0316 -11.9971 
20250 4 13.59 17.8559 9.69511 -13.7664 6.59528 -27.6862 
20247 2 13.6446 19.4223 9.89672 2.87696 28.8505 69.9743 
20175 2 13.7411 16.3389 9.95052 44.9013 116.892 87.4487 
20255 5 12.7826 16.0392 11.1348 -2.44436 -11.513 -15.8755 
20251 5 12.5994 19.887 10.8751 -0.450771 0.164887 3.57313 
22797 1 10.5866 17.8329 10.6706 3.49785 -1.33509 9.3642 
22804 5 8.85928 16.0465 10.2629 -4.59587 -10.9887 -14.1606 
22806 5 9.15709 19.6726 10.6518 26.3031 -12.5672 -11.5291 
20209 6 12.874 15.0323 5.7533 0.476311 -0.361688 1.51257 
20174 8 12.7095 14.4625 7.54514 27.4587 10.8175 -53.9658 
22802 4 7.35344 14.1712 9.46207 -20.858 9.37527 -29.0224 
22707 1 10.7485 14.2517 10.2767 12.393 10.6251 4.60583 
20180 3 10.8086 14.0423 7.95232 18.1726 -8.81455 4.95493 
20260 7 13.0324 18.8856 6.99744 0.13401 1.33658 1.26134 
20261 7 12.9162 17.3666 7.33817 -0.517973 10.637 5.58432 
20401 7 13.4229 15.9899 5.62814 -0.161453 0.311649 -1.2828 
20406 9 10.0189 14.4108 7.4707 -1.26796 2.84038 -2.41926 
20413 7 11.9327 15.1884 5.26927 -0.068471 -0.0247497 -0.43927 
20222 6 12.7014 18.0477 6.67459 -0.751893 0.710167 -0.95466 
22813 7 7.7456 15.0607 6.62462 -0.0720225 -0.0490456 0.063852 
22812 7 7.44152 13.8113 7.30537 0.725733 1.4407 6.47367 
17861 7 18.0327 18.1656 5.18632 -0.041426 -0.0258594 -0.195169 
17849 7 19.1146 19.332 5.5722 -0.0525349 0.152133 -0.564261 
17657 6 18.7692 18.3451 5.88217 -4.87102 -2.65309 15.1036 
20252 5 14.9691 19.7344 10.5394 -7.96577 -13.1586 -17.634 
20182 5 15.2166 16.0409 10.213 -4.15533 -20.7408 -13.9761 
17622 8 18.5634 18.0799 7.75046 32.1279 28.0227 -14.7853 
17854 9 15.9449 18.6012 8.0719 -0.314864 2.03977 -3.2419 
17628 3 16.7563 18.0742 8.25458 4.11966 -10.0498 9.66807 
17624 4 19.3217 16.6826 8.46567 -7.68074 -11.5524 -3.56473 
17629 4 18.9827 19.4332 8.85904 -13.6793 -12.3663 1.44684 
17621 2 19.6951 15.6526 9.54627 45.5811 94.8982 82.7419 
17623 2 19.5501 20.2671 10.0023 52.9061 25.1604 76.4253 
17630 5 21.0316 19.7719 10.2793 12.3235 -2.54606 -15.6884 
17627 5 21.1919 15.89 9.96206 1.01118 -17.7434 -17.1354 
20155 1 16.8424 17.9752 10.6946 1.92323 10.9886 -30.8401 
17626 5 18.7672 15.8963 10.7355 -8.47403 -8.8381 -12.1924 
20171 1 16.7158 14.1373 10.3208 5.44784 6.53678 -17.855 
17625 4 19.606 14.0957 9.12525 -5.91036 7.94242 -11.8016 
17564 7 21.4906 17.2833 7.58657 -0.585743 1.58029 -1.23635 
17703 5 18.6795 20.0258 11.2014 -15.3008 -12.2301 -21.6651 
17709 7 19.905 20.6273 7.34679 2.90423 4.95758 4.37162 
20259 7 15.568 20.8847 8.4035 12.2218 3.52773 -2.28171 
17526 6 22.4132 17.452 7.70597 -7.67533 -6.78258 17.8766 
17563 7 22.8092 16.6576 7.3521 0.271146 0.354866 -1.94166 
17619 1 22.5682 17.9268 10.3236 11.3866 12.5812 -30.941 
15250 9 25.4259 16.554 7.3496 3.22862 4.18818 70.4579 
15006 3 25.6058 15.7572 7.92658 -17.2155 -12.2192 55.2227 
15072 4 25.3173 20.4252 8.40544 -12.991 -7.88417 -2.92551 
15073 4 25.9599 17.9542 9.15621 -15.6894 6.07458 -36.1183 
15069 2 25.8295 19.4844 9.52152 46.475 196.921 70.544 
15075 5 27.2671 19.8707 9.91392 4.78669 -4.40949 -15.2937 
15001 2 25.8934 16.4473 9.39988 31.0418 22.1225 35.1549 
15007 5 27.2951 15.9854 9.7832 -0.448205 -10.5602 -16.1778 
14980 1 29.1857 17.8209 10.1444 -12.5543 -20.4586 15.1068 
15074 5 24.8028 19.6389 10.6176 -5.8161 -5.33446 -19.4514 
15079 5 24.8396 16.1163 10.4638 8.68211 -3.58772 0.0796435 
12533 7 25.4571 18.3754 7.23091 -0.380329 4.48271 5.9957 
17532 1 22.9834 14.1035 10.1761 10.0015 12.1693 9.32558 
14998 1 28.6373 13.9834 10.0874 19.8404 24.6515 13.0957 
12492 6 25.1645 17.9196 6.43544 -1.27538 -1.71311 -0.895553 
12532 7 24.2391 17.8074 6.45162 -0.0699209 0.0105843 -0.236682 
17636 7 24.2982 14.6547 7.77674 3.15018 -4.70753 -4.56286 
17597 6 27.3956 19.7327 6.47718 -16.3353 -1.05959 1.0987 
17635 7 27.0344 19.9354 7.31032 6.32079 1.20567 -2.4597 
17596 6 23.5563 13.9987 7.66239 -11.4111 -1.56959 4.69371 
14974 6 28.7308 14.0837 7.53935 -5.79728 -10.9923 7.17506 
17634 7 26.9707 18.9124 6.11254 0.288659 0.569141 -0.154217 
15084 7 28.6931 18.2675 6.90767 0.589417 2.77071 -1.53862 
15012 7 28.1952 14.867 7.30744 1.77942 1.8047 -1.71338 
15044 6 29.2899 17.8272 7.55162 -18.3898 -15.3757 14.341 
15011 7 29.5706 14.1102 6.99075 5.04787 0.882955 -0.253423 
25461 9 1.63963 21.1191 8.56579 -0.420816 9.03562 -6.00759 
25417 1 4.459 21.7465 10.9217 -17.209 -19.9545 -43.1102 
24923 5 0.754769 27.5218 10.9484 5.95369 1.80189 -2.79396 
25425 3 1.35108 22.98 8.77836 -10.6958 -8.32201 18.4201 
24927 5 0.559259 23.61 11.1153 15.6062 -1.51217 7.74274 
25426 5 3.10363 23.8017 10.4009 3.52955 -9.42478 -9.118 
25420 2 1.64879 23.9265 10.0018 35.9277 97.5456 57.7361 
25401 1 4.97038 25.5329 10.7242 12.0746 5.16303 6.44628 
24924 5 3.18735 27.1766 10.4054 -6.11986 -6.0863 -14.1149 
24922 4 1.38256 25.4386 9.75254 -16.4884 10.3978 -16.7864 
24919 2 1.7823 26.9563 9.95451 1.43096 144.332 60.6701 
24921 3 1.55556 27.7248 8.56562 -3.25992 -0.939643 8.28623 
25462 9 1.60156 23.3783 7.96981 -0.0548644 0.117417 1.81056 
22871 5 6.64021 23.6959 10.9095 4.9117 -4.51689 -5.19483 
25451 9 2.36751 27.8615 8.13061 0.0524426 0.482437 1.5525 
22375 5 6.78156 27.3777 11.2762 2.00645 -4.30057 -5.49672 
20355 9 13.7553 21.1037 8.67011 -2.68657 21.2932 -1.03732 
22873 3 7.36095 26.8242 8.94079 -1.73334 -2.95496 23.0604 
22910 9 7.83453 27.1872 8.16884 0.0175651 0.301711 5.1883 
22881 7 10.5673 22.2037 7.78641 0.17751 0.147775 -0.599413 
22880 7 12.0072 21.7432 8.22322 12.0742 4.41842 -4.62603 
22869 3 7.56442 24.0265 8.5961 -0.861545 -1.30221 0.783002 
22842 6 11.0399 21.8185 8.50693 -11.6593 -8.52723 2.89349 
22909 9 7.42422 24.9915 8.72358 -0.295054 9.48879 -0.722509 
22870 4 7.80675 21.6814 9.76784 -9.89144 13.1926 -14.4993 
22781 1 10.8959 21.6885 11.0129 -25.1935 -18.9449 22.7383 
22868 2 7.76545 27.7412 10.1816 38.2305 98.5695 39.3357 
22867 2 7.78902 23.2324 9.92461 54.4245 189.751 73.9485 
22381 7 12.0152 26.341 8.4485 11.0595 9.2419 -1.47305 
20253 3 13.4682 23.4016 8.82795 -28.9403 -27.4888 8.5531 
22380 7 10.8121 26.2531 7.54966 0.0747319 0.106711 0.0969414 
22342 6 11.2091 25.8188 8.3988 -19.4418 -2.82463 29.9703 
20317 3 13.3219 27.8427 9.08682 -10.1418 -13.2074 -8.11739 
20248 2 13.7696 24.0294 10.2263 7.84592 4.39824 107.5 
20318 4 13.624 25.5447 10.0164 -28.8386 -18.9077 -42.4256 
20315 2 13.7788 27.0543 10.3348 50.515 -14.8324 81.6092 
22865 1 10.6865 25.3992 10.9226 11.9743 11.0806 7.84438 
22872 5 9.17462 23.6871 10.462 5.23554 -15.5391 -14.3699 
22874 5 9.24947 27.6706 10.5948 6.62236 -9.91706 -10.027 
20356 9 12.5954 23.6209 8.49206 10.2528 3.81992 -10.1127 
25431 7 14.1509 26.52 7.83751 1.06865 4.74878 6.74379 
20323 5 12.8525 23.6161 11.429 2.00452 -8.20042 0.563991 
25430 7 14.093 24.9955 7.86813 1.66975 4.72623 10.3699 
25395 6 14.4016 25.7329 7.27378 -0.139446 0.0911859 -0.161666 
20258 7 15.2294 22.3163 8.12146 1.35906 0.120423 -1.43393 
20223 6 16.0015 21.7513 8.2238 -7.34223 -1.23559 9.01229 
20245 1 16.5342 21.695 10.8038 16.4159 20.4103 21.6689 
17698 4 19.4354 21.7483 9.56107 -12.0159 -3.66771 -28.4932 
20320 5 15.2214 27.4242 10.856 4.46771 -11.1009 -14.9447 
20254 5 15.1801 23.5949 10.561 -15.9368 -11.7327 -19.8837 
20329 7 17.2434 26.6466 8.28058 4.00819 3.21166 -3.65115 
20328 7 16.0419 25.8023 7.61998 1.70333 -0.0155437 -0.0866761 
17803 9 18.6355 24.4714 8.19816 9.14818 9.20609 -0.660831 
20290 6 16.6573 25.8385 8.42977 -27.1575 -4.69496 8.5401 
17697 3 19.4666 23.9299 8.24968 -7.40702 -15.402 7.75181 
17701 3 18.7572 27.5768 9.07536 -11.4062 -29.6861 -3.78713 
17695 2 19.6311 23.298 9.64847 1.51503 5.04884 78.7232 
17696 2 19.6976 27.9701 10.2409 33.4744 100.803 94.0624 
17700 5 20.9899 23.6351 10.1729 -17.4592 -7.64617 -19.3622 
17702 5 21.0953 27.3466 10.1236 7.8478 -13.4206 -21.2718 
17699 5 18.7076 23.7838 10.7613 -2.90902 -4.2723 -1.789 
20229 1 17.0048 25.6018 10.9426 18.7076 14.9051 -13.0507 
17708 7 20.0702 22.1005 7.0657 -0.243301 1.39969 0.818788 
17670 6 20.1319 21.2549 6.64674 -0.740743 0.850695 -1.31659 
17707 7 20.7868 25.2363 7.6314 4.67713 4.92021 -0.0819303 
17706 7 21.1787 26.5559 8.43819 0.140016 6.49803 6.81203 
17671 6 21.5933 25.7538 7.94146 -0.413472 -4.82353 5.38083 
17804 9 18.1596 28.2261 8.79174 4.30426 -0.330638 -3.003 
15302 9 22.12 22.0167 7.2663 -10.7653 2.27492 -0.633405 
15082 7 28.9341 21.4367 6.98265 -0.129424 1.91883 -3.10309 
15309 7 26.1711 21.1856 5.56242 -0.0515515 0.353961 -0.581181 
15297 7 25.7773 22.9358 5.36905 0.0246519 0.422065 0.0407573 
15076 3 22.8653 21.7306 7.945 5.13573 -10.1784 6.77967 
15105 6 25.4296 21.9972 5.7434 2.51857 2.80019 8.73853 
15067 1 28.5009 21.8246 10.3102 7.38511 13.5313 27.4434 
17603 1 22.8719 21.8054 10.3091 41.9639 31.1833 66.2899 
15070 8 24.6898 21.8654 7.53391 8.84795 21.9187 -5.26813 
15157 7 24.761 24.7113 6.5409 0.107034 1.43721 -2.22856 
17693 1 22.4585 25.6458 10.3024 35.541 46.7809 72.1327 
15118 6 24.3516 25.0692 5.80024 0.215821 -0.0174819 -0.0796016 
15156 7 23.4675 25.4068 6.08223 0.348257 0.066288 -0.0164302 
12750 9 28.7793 27.0604 8.02173 -18.1404 -1.30489 -3.54211 
15145 3 25.8709 28.1424 8.32624 -25.0641 -10.0468 23.941 
15077 4 25.2347 23.1977 8.50469 -14.7961 -21.7626 -11.4129 
15146 4 25.5466 25.6818 9.29943 -7.69348 17.8908 -15.9368 
15143 2 25.8227 27.2278 9.63665 33.6467 57.3307 42.8691 
15071 2 25.6377 24.1622 9.58877 42.1577 137.087 70.9241 
15078 5 27.0823 23.775 9.8664 3.39424 -1.54594 -12.4063 
15148 5 27.2019 27.5255 10.2775 11.37 -13.2382 -15.9117 
15051 1 28.9278 25.6837 10.4438 0.614752 13.1624 47.8315 
15147 5 24.7278 27.7419 10.5663 3.93528 -1.96355 -8.16192 
12524 3 29.1596 26.0649 8.01414 -11.2932 -1.26843 9.11406 
15045 6 29.2043 21.7754 7.82857 -18.4941 -11.0304 5.34838 
15251 9 25.5134 27.6474 7.63837 -0.08178 -0.291055 15.5337 
15151 5 24.6677 23.8201 10.7274 -4.65578 -8.24118 -16.5428 
25272 7 0.570603 4.69171 16.2584 3.36345 0.0347866 5.88591 
25198 5 4.5419 2.55475 12.6561 -17.2898 -9.72141 -9.23367 
25195 5 4.3158 -1.09258 12.7632 -0.930618 -2.82107 3.51983 
25511 9 0.0456759 0.631058 16.0775 -35.1939 4.02553 -1.50821 
22635 1 6.05896 0.692999 12.8525 -34.3362 -11.8731 -4.94084 
25268 5 2.06322 2.89899 12.9931 0.831561 -11.4657 -21.6869 
25258 1 0.250924 4.4912 12.7638 3.76892 -2.17093 4.25626 
25207 1 0.476342 0.786529 13.0733 15.0286 38.8052 21.4603 
25191 2 3.47612 3.03985 13.5769 18.3822 57.658 59.9793 
25263 4 3.57926 4.53329 13.9916 -26.9955 1.96097 -29.8532 
25197 4 3.26023 2.0922 14.7531 -15.5621 -33.3916 -16.9038 
25192 4 3.04502 -0.482259 14.848 -10.7448 -17.5609 -5.83288 
25196 3 0.768136 0.919243 15.3543 -8.46309 -20.0497 8.27735 
25190 8 2.57823 0.915234 15.8637 -100.078 3.19353 -86.9554 
25240 6 3.16104 0.910869 17.6581 -7.87113 -7.23222 -13.0638 
25519 7 3.32067 -0.0170096 18.2221 -0.161974 2.79528 -25.3198 
25507 7 2.98091 1.67327 18.3911 0.750812 12.0912 -9.44812 
25308 6 0.163754 4.59819 15.3504 -17.8342 -3.32324 23.0201 
25270 6 1.71208 4.80042 18.257 -31.3716 -8.86602 -6.47331 
25310 7 1.92156 5.45177 18.9791 -2.67131 -6.32072 7.73945 
22655 1 6.37544 4.67075 12.8239 1.80483 9.3967 -1.11502 
25194 5 1.89442 -1.62182 13.1754 -0.841308 -14.3529 -20.5358 
25189 2 3.31878 -1.5892 13.8009 47.1148 110.492 93.48 
25309 7 2.51929 4.66315 17.6887 14.914 -3.49897 3.34252 
22683 6 6.22233 0.979728 15.4688 -14.5331 -6.79686 12.7242 
22644 3 6.83391 4.5707 15.2571 9.27263 -14.2589 18.5459 
25472 9 2.08432 3.60144 19.2623 3.71342 8.49966 52.1233 
22651 7 5.28515 1.05404 15.3523 -28.9778 1.60695 -8.57329 
22650 7 6.3645 1.59355 16.2557 -2.84466 8.1269 7.0478 
22759 7 4.80994 4.96586 18.559 2.67362 -0.0758598 6.51588 
22959 9 6.186 4.55892 16.1051 -11.1127 4.53091 2.13777 
22649 6 4.07205 4.56242 16.8987 -18.8204 11.3782 -46.3315 
22684 7 3.82266 3.88226 16.208 0.421162 6.77736 9.24795 
22685 7 4.21283 5.37547 16.3978 -0.042871 14.4909 15.304 
20062 7 5.63276 3.19416 18.0142 3.80973 1.74461 -0.349157 
22687 7 5.89852 1.09594 18.7028 2.12072 15.6802 8.06198 
20023 6 6.29335 2.54374 17.8008 -19.9032 -31.8735 -34.7587 
25237 7 0.196256 1.14306 18.6821 -3.07817 3.09993 -1.32612 
25312 7 -0.234772 4.99365 18.813 5.9246 0.467105 -3.73416 
25378 6 -0.335885 12.2123 15.8501 -19.7905 -3.97812 23.7396 
20061 7 7.08157 2.7779 18.2947 7.04331 -0.661943 1.90341 
20022 6 13.4106 -1.59744 16.9995 -28.0925 -24.6695 5.73149 
20101 7 8.58061 0.284497 16.4004 3.16185 1.49172 -1.2956 
22931 9 9.96273 -0.786269 15.6646 -9.66732 -0.447431 -148.998 
22643 5 10.3472 2.57234 12.1955 -2.38488 -4.18005 -9.30508 
20083 1 12.0539 4.57824 12.2941 19.4388 11.1164 24.6222 
22642 5 7.78438 2.32799 12.6693 -1.53643 -7.54114 -20.4931 
22572 5 10.3915 -1.19034 12.4814 -5.25966 -8.33199 -19.8401 
22647 5 8.01803 -1.15376 13.3887 -2.7805 -12.7143 -17.4724 
20029 1 12.4935 0.818447 12.5759 -2.17644 4.49309 -9.87103 
20095 5 13.8672 2.81253 13.0198 -6.54585 -10.539 -15.1468 
22637 2 9.23854 2.21284 13.1776 43.8409 -150.482 67.7439 
22565 2 9.47766 -0.798971 13.6553 27.9366 83.1165 3.85022 
22641 4 9.6135 0.790931 13.697 -30.6864 -39.5728 -32.0053 
22640 4 9.10375 3.21619 14.2882 -11.8848 -27.3643 -18.4206 
20060 6 12.0663 0.98469 15.1216 -13.0493 -7.96327 8.32641 
20025 7 11.0914 0.967628 15.1912 13.4376 1.84068 3.2302 
22638 8 8.68183 4.47054 15.3991 -9.32695 12.3466 -34.572 
20024 7 12.2983 0.717313 16.0293 2.02461 3.562 -2.19889 
22688 6 9.54647 4.18216 17.1007 -0.751435 -2.71432 12.5766 
20130 6 9.31464 0.378681 17.046 6.42207 -14.007 14.1918 
20016 5 13.8732 -1.10957 13.0216 3.47027 -14.5987 -18.1217 
20100 7 8.88645 0.218222 17.899 -2.83182 7.80329 7.14658 
22967 7 9.23764 4.68425 17.9756 -1.75312 -2.95289 -17.3893 
22571 3 10.0239 -1.47292 15.0022 -17.3826 -18.9892 -17.9906 
20135 7 12.3368 0.263053 18.5238 1.52912 4.42443 -3.2391 
20134 7 10.8581 0.441797 18.4583 7.17825 5.08187 -1.27473 
22955 7 9.55542 3.16154 17.4473 -1.33023 -0.825532 -13.5941 
20098 7 11.5677 4.91824 18.4267 -0.0138317 1.37893 -8.59958 
20096 6 11.6364 0.841447 18.879 -13.2414 -8.14311 2.32449 
20064 7 13.9148 -1.19945 16.2109 17.1024 -3.20358 13.2925 
20379 9 14.2838 1.62143 15.075 2.53113 8.48746 -3.63727 
12367 6 29.5817 12.212 19.0201 -28.0012 -7.32589 -2.2464 
20366 9 15.0592 3.69143 18.9581 0.349956 2.5251 28.8029 
20365 9 14.9894 -1.28888 18.8629 -2.08785 4.06671 -21.3389 
20378 9 15.4007 0.0444891 14.8487 0.769135 74.978 26.9261 
20012 2 15.2359 -1.61828 13.5115 10.9486 -27.4428 79.1364 
17469 5 19.9364 -1.30131 13.4326 -13.1301 -12.0862 -13.5117 
20017 5 16.2815 -1.21496 12.5395 8.69739 -0.869736 -6.27036 
20020 5 16.2894 2.4578 12.6312 -6.37361 -5.45097 -8.83436 
17477 1 18.4308 4.50707 12.7514 50.2613 41.5016 54.7985 
17458 1 18.218 0.637135 12.871 56.8435 42.5491 16.8817 
17464 5 19.9587 2.61017 13.0923 -4.34053 -13.0959 -13.9287 
20014 3 15.3481 -0.927596 14.9324 -18.9869 -9.57675 31.5309 
20013 2 15.2355 2.86552 13.6686 18.3498 -13.9065 77.6002 
20089 4 15.4847 4.41259 13.8828 -18.3908 3.68773 -25.5454 
17460 2 21.2934 2.30374 13.8302 55.8366 34.7312 75.8992 
17386 2 21.2555 -0.760946 14.0881 56.4731 135.006 45.4041 
20019 3 15.1445 2.03027 15.016 -11.8916 -5.4423 9.8423 
17466 6 17.7959 0.807307 15.4792 -33.1977 -15.6708 21.1969 
17494 7 16.9937 1.29514 15.4573 -0.170421 3.32462 -5.69768 
17493 7 18.2873 1.36056 16.1037 0.564821 6.33235 -3.82801 
17471 6 19.1093 2.82023 17.2222 -26.6957 -26.3708 -23.5944 
17510 7 20.008 2.93654 17.5173 2.38876 -0.639394 15.8877 
17509 7 18.6742 2.30011 17.8883 2.57811 -0.102705 -4.30602 
17463 4 21.2166 0.803669 14.1626 -12.3528 -6.23675 -26.3747 
17508 6 17.9817 4.88002 15.2581 -28.8951 -16.6253 14.7048 
14959 7 21.5664 -0.475751 18.2268 -1.45581 3.38598 3.90986 
14960 7 20.849 0.782589 17.9392 -1.99727 4.96654 3.82992 
17391 3 21.5192 -1.31856 15.5177 -13.4885 -22.6149 -16.5314 
17825 9 21.3108 -0.507265 16.1291 -0.669801 21.3975 -55.7596 
17462 3 21.3117 3.17307 15.1436 -15.1638 -20.1628 15.1148 
14918 6 21.5583 0.251388 17.574 4.75128 -14.1452 0.147666 
17826 9 20.4485 3.03044 15.5874 13.6753 -2.19356 4.07172 
17582 7 18.4709 4.16626 18.272 7.99987 -6.23301 -1.84286 
17472 7 18.3918 4.37957 16.0217 5.73155 7.0644 2.63812 
17473 7 17.0482 4.67772 15.2051 10.8172 0.645665 0.276965 
17827 9 21.0591 5.17357 15.3411 1.11664 58.9172 7.82748 
17474 7 17.5616 -1.59692 15.7687 6.11529 8.48736 -4.05816 
17544 6 18.1079 4.79721 18.9156 -8.27494 -11.2352 -3.30665 
17583 7 18.8997 5.43794 18.8449 8.73373 -4.35313 -2.42194 
17813 9 21.4967 3.52879 19.3371 13.2945 33.6784 17.366 
17499 3 21.0032 2.67127 19.2271 -22.4442 -17.1913 3.11605 
17456 7 16.7995 1.92628 18.9969 -1.1066 -5.58163 -7.66142 
25345 7 -0.407354 12.6078 16.7823 4.28978 -0.182132 4.00299 
12370 7 29.829 4.5203 16.5659 7.43578 4.2153 5.06249 
14951 6 23.0244 4.54358 18.8235 -14.1515 -7.51797 15.8949 
15310 7 26.3765 -0.414796 16.6345 2.71382 7.48375 -1.5309 
14904 7 23.3882 4.66066 18.0043 1.1996 0.443883 -10.2901 
17392 5 22.3788 -1.113 13.0479 11.1634 -0.798518 4.76819 
14833 2 27.436 -1.7351 13.7653 14.6505 164.663 66.2204 
14837 5 26.0685 -1.25524 13.3193 -4.71012 -12.9525 -14.3772 