ITEM: TIMESTEP
400000
ITEM: NUMBER OF ATOMS
25517
ITEM: BOX BOUNDS pp pp ff
-3.8959205201285124e-01 6.0088135642019459e+01
-1.9452389155355383e+00 5.9115524189537531e+01
-1.2206056431032383e+01 1.1390111600702880e+02
ITEM: ATOMS id type x y z v_stressx v_stressy v_stressz 
25292 7 5.89857 3.03966 7.5916 -2.48169 -8.47585 -6.14361 
25293 7 5.98077 1.53035 7.7064 -1.90322 -5.90078 -1.90198 
25252 6 5.35811 2.25094 7.51796 -6.34041 -3.25705 0.167985 
25287 5 0.61597 0.755495 10.7564 8.04419 -1.51299 5.33644 
25283 5 2.94291 4.2301 9.842 11.0254 6.40683 -13.0936 
25281 4 1.3887 2.44216 9.07367 -12.7403 1.84791 -16.44 
25280 4 1.07853 5.00258 8.46007 -12.7765 -8.61828 -6.92765 
25277 2 1.45655 3.94107 9.49571 50.3861 38.0664 78.7992 
25215 5 2.99957 0.588718 9.72621 -14.6011 -10.035 -11.5396 
25209 2 1.59287 0.935181 9.44522 7.19927 -57.6983 71.7807 
25188 1 4.8243 2.58953 9.97468 5.52443 1.29195 14.188 
25214 3 0.796635 0.0137284 8.44439 -1.71647 -4.39008 2.40867 
25282 5 0.520916 4.37471 10.6565 -14.9873 -14.658 -17.5533 
25458 9 1.40812 -0.435335 7.83607 0.024834 2.07561 1.69886 
25206 1 4.52732 -1.17961 10.115 34.705 38.0424 19.8166 
22660 5 6.52822 0.875659 10.2203 -1.30269 -5.81058 -16.2507 
22735 5 6.623 4.87348 10.5536 2.12061 -9.20993 -15.5348 
25505 7 1.83983 5.65447 5.50835 -0.0553288 -0.161071 -0.296771 
22662 3 7.17647 4.29529 8.22411 -12.1002 -23.242 -18.5862 
22658 3 7.30314 0.346889 7.89736 -14.9944 -15.201 -11.4603 
22905 9 7.65252 -0.485879 7.46068 0.0222509 -0.416715 -4.48289 
22906 9 7.50322 4.57024 7.35908 -2.76057 4.3574 9.73802 
20115 7 11.1372 2.292 6.49758 0.445964 -0.00650863 -1.14729 
22656 2 7.7059 0.365729 9.40584 22.3152 74.292 61.9286 
20116 7 12.1136 2.88755 7.40659 19.6411 6.70298 2.69303 
20078 6 11.1398 2.86581 7.23657 -15.9208 -11.6571 1.55038 
20106 3 13.741 4.72985 7.46261 -15.742 -11.1967 42.1321 
22657 2 7.60419 5.1024 9.41016 54.7152 -15.6489 23.2962 
20036 3 13.619 0.47741 7.57109 -16.5264 -19.5033 16.6258 
20107 4 13.6664 2.6833 8.8298 -18.0788 -14.1846 -34.1776 
20104 2 13.8784 4.18168 8.97251 31.945 36.5117 95.6104 
20031 2 13.7132 1.1448 8.96008 62.6432 163.92 14.9372 
20108 5 12.6966 4.70757 9.81807 14.5988 11.9841 1.28662 
20112 5 12.4932 0.846951 9.91178 11.0545 -0.0155953 6.74184 
22654 1 10.4859 2.78478 9.68506 11.2491 10.2891 12.0827 
22661 5 9.03983 1.11007 9.56315 -7.46815 -6.51328 -16.1309 
22663 5 9.10858 4.7108 9.73761 4.39557 -12.8023 -15.4955 
22563 1 10.886 -1.13469 10.1589 -0.710671 -0.187928 -20.1391 
22659 4 7.7627 -1.12896 9.68153 -9.43896 -34.9272 -34.7245 
22629 6 11.3751 -1.065 7.76545 -16.7881 5.02523 2.47279 
22669 7 11.9249 -0.207968 7.44815 1.29637 5.21209 -1.2751 
20352 9 13.8605 1.22514 6.87465 0.713659 12.5232 14.6756 
20189 7 14.2777 3.18994 6.51456 0.279884 13.5328 8.35002 
20353 9 14.543 5.23857 7.22704 7.74637 13.2275 16.8075 
20148 6 14.5671 2.45013 5.87332 0.144637 0.0569553 0.102336 
22740 7 11.2703 5.5881 6.8279 3.28862 1.487 -1.17174 
22738 7 8.76742 5.41578 5.90114 -0.678109 0.705536 -1.37454 
22701 6 7.85394 5.37142 5.69312 0.45379 -0.343095 7.94834 
22739 7 7.886 4.86164 4.87022 -0.0109907 0.0203819 0.00835261 
22670 7 11.9327 -1.89861 7.72342 1.05197 1.66548 -5.22924 
20188 7 15.4435 2.20345 6.22553 0.813747 -0.136587 0.0635737 
20037 5 15.0057 0.565552 9.66218 -1.0124 -6.94012 -13.2361 
20118 7 17.8719 2.63796 7.70159 5.65472 -0.328678 -2.93737 
20117 7 17.6995 1.17882 7.44002 3.02345 2.54192 -4.69601 
17799 9 19.455 -0.241526 7.33338 0.327329 6.61215 17.9654 
20077 6 17.1284 2.01775 7.60787 -23.234 2.39875 26.6666 
17484 3 19.536 4.02271 8.03155 -4.20552 -2.58891 -2.26347 
20109 5 15.1822 4.68195 9.53593 -5.92898 -7.34339 -17.8766 
17480 3 19.3808 0.510653 7.95906 -16.4902 -31.9261 11.0559 
17478 2 19.7385 0.13463 9.405 32.6297 34.101 45.671 
17479 2 19.7269 4.90401 9.32133 46.7503 113.094 59.8458 
17485 5 21.0972 4.45706 9.83859 4.84315 -15.9752 -16.4028 
17483 5 21.125 0.57616 9.92672 5.02562 -10.0052 -13.168 
17482 5 18.7273 0.612358 10.4453 1.05536 -3.74071 -5.9722 
17560 5 18.5746 4.39351 10.2378 -1.18144 1.57403 -11.6159 
20011 1 16.7883 2.43064 10.1919 50.2682 45.9224 48.9934 
20028 1 16.5417 -1.33752 10.1131 23.6967 17.2737 9.93578 
17481 4 19.613 -1.37684 9.30614 -12.3662 -19.587 -37.0923 
17800 9 20.2785 3.41394 7.96437 0.308892 -2.8869 -5.50663 
20002 6 16.2002 -1.21507 7.53432 -10.4825 -7.51964 13.3991 
20044 7 15.5857 -0.449442 7.68688 4.37136 8.55835 -2.80928 
20043 7 16.3516 -1.12082 6.60323 0.28288 0.20078 -0.843252 
17377 6 19.8786 -1.6773 6.3322 0.247597 -0.139752 -0.0161629 
17415 7 20.5742 -1.92657 6.98281 2.85728 2.50403 2.17105 
14864 7 23.6314 3.83266 7.75133 5.59458 -4.69568 -1.50781 
14825 6 23.2988 2.969 7.82153 -9.30333 -3.82246 1.48281 
14863 7 24.1611 2.53617 7.90018 3.88202 -1.31503 -0.65366 
17476 1 22.5994 2.5974 10.2549 -65.6284 -40.8082 55.3353 
14928 3 25.5679 4.59148 8.20809 -31.3116 -49.9084 -46.0279 
15246 9 24.7065 0.00657495 8.04332 7.98944 10.7876 19.8659 
14856 3 25.5405 0.383335 8.16649 -12.5739 -14.7773 11.1385 
14929 4 25.6618 2.47021 9.27814 -17.8468 -35.2308 -34.0552 
14851 2 25.7726 0.935136 9.6021 20.1163 -189.4 76.6128 
14926 2 25.8313 3.99121 9.61155 28.7824 145.556 88.6283 
14857 5 27.172 0.513951 10.0212 -9.67981 -11.96 -20.9423 
14931 5 27.2703 4.30837 10.1061 -28.3185 -11.3238 -17.6392 
14832 1 28.9014 2.41808 10.4207 14.7921 12.246 46.1049 
14930 5 24.8007 4.37565 10.6576 12.5769 -4.55749 -12.8675 
14934 5 24.7275 0.511689 10.6576 4.68943 -3.89891 -0.4626 
17384 1 22.8636 -1.16741 10.5973 -1.90188 4.17008 -13.2192 
14848 1 28.7231 -1.43222 10.2624 15.0523 18.6199 9.85468 
14898 6 29.1786 2.45721 7.88738 -13.7129 -15.2971 6.24433 
15247 9 26.3681 4.66526 7.72718 -1.61607 -1.09393 -15.3204 
14826 6 28.1456 -1.3901 7.71182 1.23895 -3.5472 26.4621 
14861 7 27.5228 -0.59177 7.7367 5.01045 5.87633 -2.25471 
14862 7 28.7608 -1.17174 6.9734 0.155367 0.0385107 -0.0670801 
17565 7 23.8543 5.62398 7.62904 12.5322 3.73523 -1.60402 
17491 7 23.3409 -0.830267 7.25909 0.0981678 0.073104 -0.453744 
12347 6 29.4782 5.3719 8.00631 -15.3349 -7.21154 3.95407 
14939 7 29.2544 3.33895 7.63004 0.449516 -0.926242 -1.21771 
17492 7 24.1978 -1.77871 8.08715 8.23083 2.48265 -6.30423 
17450 6 23.2929 -1.42611 8.02021 -21.6626 -7.0228 19.1043 
25291 7 5.22591 6.53661 7.32751 1.18442 1.65133 -3.20531 
25290 7 3.82687 6.55555 6.86919 -0.690998 1.65011 -4.4007 
25253 6 4.33607 6.71227 7.63615 -9.61366 -11.5767 2.00682 
25517 7 1.84279 7.29014 5.50902 -0.0251782 -0.0608192 -0.5536 
25313 6 1.21101 6.45671 5.78137 5.97931 -5.18036 30.3 
25362 7 1.19888 10.608 6.31952 -0.0178994 -0.0186435 -0.0133114 
25275 1 4.36027 6.50413 10.1833 4.52793 13.1849 10.4754 
25278 8 0.639374 6.49188 7.63496 53.1121 31.8165 10.7532 
22958 9 3.89074 10.3239 7.2783 -3.47917 1.49471 0.276602 
22732 3 4.70032 10.3548 7.96195 2.39251 -12.6124 13.8238 
25359 5 0.701437 8.49354 11.0939 -9.7897 -10.5261 -15.5954 
25356 5 3.08021 12.146 10.2169 9.95009 0.00915261 -12.7149 
25355 5 0.535314 12.2845 10.6518 -2.51772 -5.61553 -7.8709 
25354 4 1.48185 10.2856 9.54639 -13.4702 13.9187 -26.4705 
25353 3 1.39194 12.6945 8.41831 -14.9871 -8.47311 4.71405 
25351 2 1.63225 11.8296 9.72046 40.1695 49.8563 65.044 
25286 5 2.93236 8.28049 10.0288 -5.43821 -15.9375 -18.7482 
25285 4 0.892127 7.85648 8.74192 -20.6107 -18.4202 -4.6597 
25279 2 1.49492 8.71367 9.83417 15.2919 98.2137 74.9387 
25259 1 4.86194 10.2149 10.3927 8.11318 9.56734 55.7717 
25327 6 1.60703 9.7444 6.34125 2.33042 1.42727 -0.971805 
25363 7 1.38635 9.50649 7.2315 0.545503 2.64495 1.80323 
22807 5 6.5607 12.2849 10.8694 -15.6269 -14.4232 -18.0691 
22730 5 6.65234 8.34528 10.5398 -4.99643 -14.8428 -15.0959 
22726 8 6.48614 10.4372 7.49213 -1.74082 17.8365 -26.9988 
22761 6 7.05704 10.8316 5.66761 1.79323 2.50224 6.81569 
22733 4 6.9844 11.7221 8.61372 -10.8869 -12.6704 -2.56426 
22728 4 7.23016 9.05362 8.29312 -12.9108 -20.3138 -5.59524 
22953 7 7.91026 10.1976 5.3838 -0.0663047 0.100453 -0.651339 
22965 7 7.33207 11.8331 5.45166 -0.0495458 0.141853 -0.276701 
22741 7 11.5 7.01103 7.05421 2.61432 -0.0407185 -1.56049 
22700 6 10.8104 6.36788 7.23855 -16.1736 -2.12547 18.2928 
22636 1 10.9188 6.69179 9.82281 3.98859 9.19563 11.959 
22729 4 7.48133 6.61374 9.11192 -11.327 -8.49201 -27.517 
22668 7 10.5831 8.59932 7.42923 1.92556 4.32823 -3.22133 
22725 2 7.70374 8.13304 9.39568 27.4492 31.869 98.6921 
22727 2 7.53968 12.6129 9.75953 16.9962 132.783 80.1089 
22630 6 10.7174 9.56513 7.55044 -8.22929 0.762247 5.39913 
22667 7 11.6785 9.56 7.58776 1.28366 0.725355 -1.32347 
20110 3 13.3722 8.00482 7.87861 -10.9802 -0.981541 -3.62855 
20176 4 13.3404 12.979 8.33811 -6.60135 -6.98702 -4.09312 
20177 4 13.5478 10.5013 8.95979 -6.23963 -0.419539 -16.0964 
20173 2 13.7057 11.9908 9.40771 33.2663 -5.08485 74.2199 
20105 2 13.7244 8.93675 9.12343 -2.07767 6.39012 84.0402 
20178 5 12.5598 12.2564 10.4158 -7.45012 -12.2647 -21.8079 
20183 5 12.8988 8.51128 10.3587 -3.59433 -11.3669 -7.21807 
22734 5 8.97942 12.4092 10.1072 -12.4969 -12.5751 -17.2857 
22723 1 10.5486 10.4168 9.97488 -2.91662 4.41592 9.89861 
22731 5 9.11607 8.33188 9.85191 -15.6513 -24.4173 -22.5314 
20354 9 13.8366 7.1662 8.02076 -1.14739 -12.3498 -25.4828 
17489 7 15.3685 7.53149 7.27379 -6.20992 -2.28472 -3.80872 
17490 7 16.4114 7.08597 6.51817 -0.225339 0.0334644 -0.311668 
17451 6 15.9423 6.78743 7.29642 -18.7316 -17.1526 17.6765 
17555 4 19.5148 6.40419 9.24816 -10.8559 2.44732 -18.2807 
20102 1 16.4765 6.46221 9.86905 10.9255 0.262536 19.0183 
20179 5 15.0791 12.3713 9.86379 2.71353 3.87213 -11.1255 
20111 5 15.0953 8.51182 9.52882 -26.34 -13.91 -14.6961 
17802 9 19.4832 11.878 7.51898 -0.108336 -0.0978944 0.166071 
17554 3 19.6317 8.68088 7.9737 -1.87279 -5.32255 6.11671 
17801 9 19.3812 9.57046 8.10065 0.626109 12.176 6.3462 
17558 3 19.3121 11.5602 8.35726 -4.1353 -2.26635 -0.43316 
17552 2 19.7279 7.97853 9.40881 25.1531 57.1856 59.2268 
17553 2 19.7446 12.5897 9.5152 42.7953 43.5344 69.0724 
17559 5 21.2085 12.1329 9.83297 6.75753 -0.623794 -10.9571 
17557 5 21.1128 8.33065 9.93016 1.00811 -11.3824 -15.453 
17556 5 18.49 8.44005 10.194 12.5768 -3.75842 -6.6281 
17631 5 18.754 12.2185 10.6826 2.03708 -5.31882 -4.26658 
20084 1 16.8199 10.2664 10.3615 -11.1262 -4.02067 -1.07657 
17566 7 22.7737 6.49197 7.09029 0.094399 0.0185656 0.0522892 
17525 6 23.2369 6.30614 7.97014 -30.0046 -5.95391 17.0014 
15249 9 26.4199 12.3989 7.50271 0.844369 0.68691 0.265287 
14924 1 28.8784 6.30371 10.2599 24.7239 20.1312 8.90947 
17459 1 22.8153 6.36449 10.4136 -83.0218 -68.0361 43.0359 
17550 1 22.6813 10.1773 10.109 19.0816 17.8896 8.67565 
15248 9 25.0074 7.30471 8.25379 6.7371 8.86768 8.7121 
15002 3 25.5553 12.1132 7.86039 -4.78733 -8.78397 8.875 
14932 3 25.8534 7.69566 8.37038 -4.64569 -4.21071 1.37103 
15003 4 25.6929 10.0578 9.40228 -9.00895 -5.93973 -23.5985 
15000 2 25.8234 11.5586 9.33827 28.7737 102.536 73.0723 
14927 2 25.9265 8.52626 9.67582 40.2486 66.9796 74.268 
15005 5 27.2586 12.0307 9.65026 -1.55845 -12.625 -16.7666 
14933 5 27.3368 8.19806 10.2714 9.4962 -13.9295 -17.4566 
15004 5 24.794 12.1885 10.2281 1.18254 3.28728 -12.254 
14907 1 29.0423 10.186 10.3202 23.39 18.4408 21.9527 
15008 5 24.7476 8.17989 10.6591 15.6735 -0.105198 -2.56183 
14899 6 29.4402 9.94521 7.67407 -3.23918 0.0364683 5.31661 
17637 7 24.0129 13.1402 7.48134 1.60875 0.647657 -0.190756 
25427 5 0.471403 16.2254 10.9577 6.33964 -3.71597 -5.00746 
25424 5 3.05777 19.7432 10.2643 -15.1333 -6.4124 -10.1299 
25423 5 0.62854 19.9386 10.7649 4.0355 -4.4799 -10.4403 
25422 4 1.53223 17.8586 9.5283 -9.57194 7.06191 -14.3473 
25421 3 1.35286 20.1653 8.46116 -3.22755 -2.59059 -0.0326369 
25419 2 1.68921 19.4163 9.80763 -41.8221 139.822 65.9367 
25358 5 3.0433 15.9649 10.3935 5.96131 -1.11884 -11.4849 
25352 2 1.62447 16.359 9.9389 56.2313 2.36301 35.9743 
25333 1 4.76049 17.9652 10.8964 -4.37063 13.4675 -2.01227 
25357 3 1.27516 15.4524 8.77037 -12.3346 -17.5468 19.0659 
25460 9 1.6173 15.8283 7.87293 0.100929 0.362928 4.25332 
25349 1 4.58657 14.1062 10.6957 6.74809 16.3689 -22.9491 
22803 5 6.49129 16.0975 10.8756 1.29658 -0.465327 -0.0392949 
22875 5 6.46084 20.071 11.1158 20.3479 8.00902 8.2845 
25459 9 1.48999 13.6574 8.56205 -0.925495 5.08431 -4.35437 
22801 3 7.03055 16.5942 8.55987 -2.20874 -6.92784 4.21561 
2179 7 -0.387305 20.8468 8.22815 14.449 2.2723 -6.42036 
22805 3 7.32975 19.3599 8.91011 -8.55627 -8.66746 25.9413 
22908 9 7.54595 19.9046 8.12021 0.0114872 0.260237 6.53452 
22774 6 7.84223 14.1301 6.46407 2.08083 1.2489 1.8421 
22907 9 7.21638 17.5067 8.66763 -0.0818125 20.2674 1.72673 
22800 2 7.69826 20.1918 10.1825 71.6584 58.1715 39.1631 
22810 7 9.52718 17.6319 7.67339 -2.03612 0.949243 -2.0101 
22775 6 10.3724 17.5576 8.1234 -18.0355 -8.99278 6.79758 
22811 7 11.0269 17.744 7.42304 6.08447 1.05239 -1.20381 
20249 3 13.6146 20.1923 8.5115 -17.4365 -16.1646 20.0107 
22799 2 7.50164 15.6895 9.76752 1.37763 20.6436 70.7061 
20181 4 13.1648 15.598 8.7498 -9.62086 -32.0989 -11.3282 
20250 4 13.59 17.8559 9.69511 -13.7912 6.66092 -26.3575 
20247 2 13.6446 19.4223 9.89672 2.4224 29.0674 66.7049 
20175 2 13.7411 16.3389 9.95052 44.9611 116.8 83.2208 
20255 5 12.7826 16.0392 11.1348 -2.49508 -11.4457 -15.7698 
20251 5 12.5994 19.887 10.8751 -0.801573 0.0490118 10.1298 
22797 1 10.5866 17.8329 10.6706 3.63975 -1.24593 28.5271 
22804 5 8.85928 16.0465 10.2629 -4.4967 -10.9392 -13.8357 
22806 5 9.15709 19.6726 10.6518 26.4351 -12.5632 -11.6846 
20209 6 12.874 15.0323 5.7533 0.473187 -0.356769 1.47484 
20174 8 12.7095 14.4625 7.54514 27.5074 11.0523 -53.2167 
22802 4 7.35344 14.1712 9.46207 -20.892 9.48575 -28.9879 
22707 1 10.7485 14.2517 10.2767 12.1511 10.4119 -7.94614 
20180 3 10.8086 14.0423 7.95232 18.1181 -8.9435 4.8346 
20260 7 13.0324 18.8856 6.99744 0.133717 1.33712 1.2949 
20261 7 12.9162 17.3666 7.33817 -0.523682 10.64 5.7309 
20401 7 13.4229 15.9899 5.62814 -0.160935 0.309869 -1.27526 
20406 9 10.0189 14.4108 7.4707 -1.25434 2.8758 -2.3225 
20413 7 11.9327 15.1884 5.26927 -0.0684469 -0.0250145 -0.438996 
20222 6 12.7014 18.0477 6.67459 -0.751506 0.710003 -1.07107 
22813 7 7.7456 15.0607 6.62462 -0.0731781 -0.0479419 0.0673249 
22812 7 7.44152 13.8113 7.30537 0.701692 1.46167 6.52557 
17861 7 18.0327 18.1656 5.18632 -0.0415878 -0.0258271 -0.195447 
17849 7 19.1146 19.332 5.5722 -0.05289 0.152118 -0.565001 
17657 6 18.7692 18.3451 5.88217 -4.83968 -2.65833 15.1414 
20252 5 14.9691 19.7344 10.5394 -8.22012 -13.4284 -17.6108 
20182 5 15.2166 16.0409 10.213 -4.09077 -20.7821 -13.2871 
17622 8 18.5634 18.0799 7.75046 32.3137 27.9277 -13.7963 
17854 9 15.9449 18.6012 8.0719 -0.274962 2.02372 -3.22096 
17628 3 16.7563 18.0742 8.25458 4.00221 -9.98204 9.57771 
17624 4 19.3217 16.6826 8.46567 -7.80219 -11.5621 -3.69253 
17629 4 18.9827 19.4332 8.85904 -13.7754 -12.3114 1.44181 
17621 2 19.6951 15.6526 9.54627 45.8157 94.9031 81.163 
17623 2 19.5501 20.2671 10.0023 53.0584 25.7654 74.9074 
17630 5 21.0316 19.7719 10.2793 12.495 -2.54392 -15.3543 
17627 5 21.1919 15.89 9.96206 1.19685 -17.6854 -16.6807 
20155 1 16.8424 17.9752 10.6946 1.60395 10.701 -32.5068 
17626 5 18.7672 15.8963 10.7355 -8.53009 -8.75878 -12.2583 
20171 1 16.7158 14.1373 10.3208 5.15255 6.43422 -27.4427 
17625 4 19.606 14.0957 9.12525 -5.98455 7.92971 -11.6097 
17564 7 21.4906 17.2833 7.58657 -0.575926 1.57034 -1.14791 
17703 5 18.6795 20.0258 11.2014 -15.4433 -12.4725 -21.2439 
17709 7 19.905 20.6273 7.34679 2.91052 4.96159 4.43715 
20259 7 15.568 20.8847 8.4035 12.2487 3.58931 -2.24398 
17526 6 22.4132 17.452 7.70597 -7.64443 -6.71271 17.7662 
17563 7 22.8092 16.6576 7.3521 0.261912 0.351694 -1.9116 
17619 1 22.5682 17.9268 10.3236 11.6722 12.6246 -6.34947 
15250 9 25.4259 16.554 7.3496 3.23674 4.19329 70.4409 
15006 3 25.6058 15.7572 7.92658 -17.2479 -12.3207 55.4846 
15072 4 25.3173 20.4252 8.40544 -12.9925 -7.92675 -3.06491 
15073 4 25.9599 17.9542 9.15621 -15.8758 6.02173 -34.9504 
15069 2 25.8295 19.4844 9.52152 47.1395 196.98 67.4186 
15075 5 27.2671 19.8707 9.91392 4.90839 -4.32318 -14.5478 
15001 2 25.8934 16.4473 9.39988 31.6736 22.5745 33.1218 
15007 5 27.2951 15.9854 9.7832 -0.467381 -10.5288 -15.6294 
14980 1 29.1857 17.8209 10.1444 -12.3639 -20.2074 14.7096 
15074 5 24.8028 19.6389 10.6176 -5.94712 -5.49726 -19.4525 
15079 5 24.8396 16.1163 10.4638 8.57131 -3.62567 -0.319038 
12533 7 25.4571 18.3754 7.23091 -0.381535 4.46533 6.06153 
17532 1 22.9834 14.1035 10.1761 10.3497 12.696 8.88869 
14998 1 28.6373 13.9834 10.0874 20.0097 24.8818 12.5394 
12492 6 25.1645 17.9196 6.43544 -1.27368 -1.71132 -0.946736 
12532 7 24.2391 17.8074 6.45162 -0.0708263 0.0108181 -0.22293 
17636 7 24.2982 14.6547 7.77674 3.1561 -4.71226 -4.57861 
17597 6 27.3956 19.7327 6.47718 -16.3377 -1.0468 0.848406 
17635 7 27.0344 19.9354 7.31032 6.33269 1.19509 -2.34151 
17596 6 23.5563 13.9987 7.66239 -11.4037 -1.55545 4.66546 
14974 6 28.7308 14.0837 7.53935 -5.78197 -10.9476 7.0896 
17634 7 26.9707 18.9124 6.11254 0.288128 0.568865 -0.147473 
15084 7 28.6931 18.2675 6.90767 0.593533 2.76747 -1.4882 
15012 7 28.1952 14.867 7.30744 1.77718 1.80762 -1.70401 
15044 6 29.2899 17.8272 7.55162 -18.4106 -15.2907 14.2859 
15011 7 29.5706 14.1102 6.99075 5.04738 0.877996 -0.253125 
25461 9 1.63963 21.1191 8.56579 -0.432325 9.04558 -6.08534 
25417 1 4.459 21.7465 10.9217 -16.5438 -19.7566 -17.2709 
24923 5 0.754769 27.5218 10.9484 5.83137 1.48432 -3.49782 
25425 3 1.35108 22.98 8.77836 -10.7319 -8.38399 18.5759 
24927 5 0.559259 23.61 11.1153 15.861 -1.3806 8.22787 
25426 5 3.10363 23.8017 10.4009 3.50153 -9.39753 -9.53625 
25420 2 1.64879 23.9265 10.0018 35.3408 97.5068 58.3631 
25401 1 4.97038 25.5329 10.7242 8.9817 5.12784 -29.3548 
24924 5 3.18735 27.1766 10.4054 -6.19211 -6.09618 -13.9038 
24922 4 1.38256 25.4386 9.75254 -16.3812 10.4406 -16.7839 
24919 2 1.7823 26.9563 9.95451 0.76488 144.71 60.5103 
24921 3 1.55556 27.7248 8.56562 -3.24638 -0.936342 8.4801 
25462 9 1.60156 23.3783 7.96981 -0.0534404 0.119259 1.81179 
22871 5 6.64021 23.6959 10.9095 4.97865 -4.77213 -5.76149 
25451 9 2.36751 27.8615 8.13061 0.0531784 0.482066 1.5439 
22375 5 6.78156 27.3777 11.2762 2.06 -4.16045 -5.64707 
20355 9 13.7553 21.1037 8.67011 -2.6556 21.3658 -0.937084 
22873 3 7.36095 26.8242 8.94079 -1.69294 -2.81148 22.5549 
22910 9 7.83453 27.1872 8.16884 0.0156445 0.301795 5.19336 
22881 7 10.5673 22.2037 7.78641 0.174354 0.150064 -0.611255 
22880 7 12.0072 21.7432 8.22322 12.0431 4.43861 -4.67829 
22869 3 7.56442 24.0265 8.5961 -0.860463 -1.29105 0.757971 
22842 6 11.0399 21.8185 8.50693 -11.4835 -8.59092 3.06777 
22909 9 7.42422 24.9915 8.72358 -0.29663 9.466 -0.64657 
22870 4 7.80675 21.6814 9.76784 -9.86489 12.9321 -15.3218 
22781 1 10.8959 21.6885 11.0129 -25.6331 -19.6046 23.9586 
22868 2 7.76545 27.7412 10.1816 38.1843 97.7809 42.7083 
22867 2 7.78902 23.2324 9.92461 53.8602 190.283 76.1458 
22381 7 12.0152 26.341 8.4485 11.1016 9.19913 -1.39493 
20253 3 13.4682 23.4016 8.82795 -29.1513 -27.7604 6.91018 
22380 7 10.8121 26.2531 7.54966 0.0747781 0.106651 0.0962723 
22342 6 11.2091 25.8188 8.3988 -19.4241 -2.68572 30.0658 
20317 3 13.3219 27.8427 9.08682 -10.388 -13.2527 -8.78993 
20248 2 13.7696 24.0294 10.2263 7.50789 4.33356 108.375 
20318 4 13.624 25.5447 10.0164 -28.9915 -19.001 -43.1501 
20315 2 13.7788 27.0543 10.3348 51.5556 -14.3041 84.1148 
22865 1 10.6865 25.3992 10.9226 12.8631 11.2016 30.1164 
22872 5 9.17462 23.6871 10.462 5.2918 -15.6777 -14.7519 
22874 5 9.24947 27.6706 10.5948 6.64182 -9.63511 -10.7193 
20356 9 12.5954 23.6209 8.49206 10.2559 3.86098 -9.93155 
25431 7 14.1509 26.52 7.83751 1.08741 4.74013 6.73845 
20323 5 12.8525 23.6161 11.429 2.02973 -7.95654 1.14461 
25430 7 14.093 24.9955 7.86813 1.71557 4.72413 10.4732 
25395 6 14.4016 25.7329 7.27378 -0.139992 0.0914243 -0.155769 
20258 7 15.2294 22.3163 8.12146 1.37456 0.145099 -1.36845 
20223 6 16.0015 21.7513 8.2238 -7.38401 -1.31505 8.96275 
20245 1 16.5342 21.695 10.8038 16.7649 20.6396 24.5372 
17698 4 19.4354 21.7483 9.56107 -11.7881 -4.05566 -28.5616 
20320 5 15.2214 27.4242 10.856 4.50731 -11.1241 -15.1728 
20254 5 15.1801 23.5949 10.561 -15.7492 -11.7 -20.3068 
20329 7 17.2434 26.6466 8.28058 4.00392 3.21083 -3.682 
20328 7 16.0419 25.8023 7.61998 1.70348 -0.018228 -0.0935362 
17803 9 18.6355 24.4714 8.19816 9.14055 9.21103 -0.643483 
20290 6 16.6573 25.8385 8.42977 -27.1945 -4.70995 8.42535 
17697 3 19.4666 23.9299 8.24968 -7.27929 -15.408 7.62919 
17701 3 18.7572 27.5768 9.07536 -11.1176 -29.5498 -2.68659 
17695 2 19.6311 23.298 9.64847 -0.0604327 5.24864 75.6059 
17696 2 19.6976 27.9701 10.2409 32.9765 100.562 89.9761 
17700 5 20.9899 23.6351 10.1729 -17.5437 -7.50615 -19.0194 
17702 5 21.0953 27.3466 10.1236 7.63939 -13.564 -20.6396 
17699 5 18.7076 23.7838 10.7613 -3.07384 -4.50804 2.54828 
20229 1 17.0048 25.6018 10.9426 18.7026 14.6094 -10.6359 
17708 7 20.0702 22.1005 7.0657 -0.245573 1.39554 0.827189 
17670 6 20.1319 21.2549 6.64674 -0.74237 0.856443 -1.32158 
17707 7 20.7868 25.2363 7.6314 4.66157 4.91603 -0.0662679 
17706 7 21.1787 26.5559 8.43819 0.118769 6.51291 6.76428 
17671 6 21.5933 25.7538 7.94146 -0.276034 -4.76207 5.6773 
17804 9 18.1596 28.2261 8.79174 4.26738 -0.362419 -3.16527 
15302 9 22.12 22.0167 7.2663 -10.7758 2.28229 -0.664993 
15082 7 28.9341 21.4367 6.98265 -0.123671 1.91338 -3.02468 
15309 7 26.1711 21.1856 5.56242 -0.0511945 0.353599 -0.581352 
15297 7 25.7773 22.9358 5.36905 0.0248792 0.421868 0.0392795 
15076 3 22.8653 21.7306 7.945 5.12026 -10.2668 6.83292 
15105 6 25.4296 21.9972 5.7434 2.51221 2.80376 8.74963 
15067 1 28.5009 21.8246 10.3102 6.93533 13.2865 33.2763 
17603 1 22.8719 21.8054 10.3091 42.2465 31.2218 65.3656 
15070 8 24.6898 21.8654 7.53391 8.78513 22.0037 -4.96847 
15157 7 24.761 24.7113 6.5409 0.0857175 1.42632 -2.26148 
17693 1 22.4585 25.6458 10.3024 36.1705 47.3666 27.731 
15118 6 24.3516 25.0692 5.80024 0.217474 -0.01661 -0.074903 
15156 7 23.4675 25.4068 6.08223 0.346967 0.0659036 -0.0175043 
12750 9 28.7793 27.0604 8.02173 -18.1456 -1.2823 -3.52451 
15145 3 25.8709 28.1424 8.32624 -25.0586 -10.0294 23.9235 
15077 4 25.2347 23.1977 8.50469 -14.8298 -21.8337 -11.9474 
15146 4 25.5466 25.6818 9.29943 -7.75581 17.7209 -15.5604 
15143 2 25.8227 27.2278 9.63665 33.7935 57.9423 39.8058 
15071 2 25.6377 24.1622 9.58877 42.1118 137.641 70.5463 
15078 5 27.0823 23.775 9.8664 3.56999 -1.562 -12.2388 
15148 5 27.2019 27.5255 10.2775 11.4771 -13.271 -14.9278 
15051 1 28.9278 25.6837 10.4438 0.527416 13.214 46.3488 
15147 5 24.7278 27.7419 10.5663 3.87531 -2.05022 -7.55087 
12524 3 29.1596 26.0649 8.01414 -11.2792 -1.33551 8.91832 
15045 6 29.2043 21.7754 7.82857 -18.5596 -11.1172 4.78317 
15251 9 25.5134 27.6474 7.63837 -0.0760237 -0.296569 15.6085 
15151 5 24.6677 23.8201 10.7274 -4.79814 -8.03629 -16.5197 
25272 7 0.772596 4.78064 15.9203 1.66207 -2.16324 2.53269 
25198 5 4.5419 2.55475 12.6561 -17.413 -10.567 -10.7004 
25195 5 4.3158 -1.09258 12.7632 -0.781197 -3.28642 3.00027 
25511 9 0.00494944 1.45098 16.1435 -15.0264 3.53347 -1.26954 
22635 1 6.05896 0.692999 12.8525 -27.5612 -8.04774 -5.01954 
25268 5 2.06322 2.89899 12.9931 -0.941834 -11.2702 -22.4497 
25258 1 0.250924 4.4912 12.7638 -0.663944 -5.14123 -3.2577 
25207 1 0.476342 0.786529 13.0733 16.6595 43.4854 29.1319 
25191 2 3.47612 3.03985 13.5769 21.4218 174.813 60.3271 
25263 4 3.57926 4.53329 13.9916 -28.0031 17.133 -35.3048 
25197 4 3.26023 2.0922 14.7531 -17.4348 -35.9625 -18.8772 
25192 4 3.04502 -0.482259 14.848 -7.31223 -16.8106 -6.29817 
25196 3 0.715369 1.08117 15.4634 -3.41969 -14.0528 14.4872 
25190 8 2.5217 0.908448 15.8022 -44.1179 -8.06667 -56.0746 
25240 6 3.63588 0.953674 17.4052 -10.6439 -19.639 -11.2274 
25519 7 3.77111 0.0541105 17.9539 0.576211 3.14007 -11.1816 
25507 7 3.54562 1.6706 18.145 -5.63089 -7.45971 -32.8285 
25308 6 0.0972136 4.60016 15.2462 -29.0321 -10.3681 -6.04742 
25270 6 1.54552 4.41604 17.9093 -32.4547 8.36142 4.69919 
25310 7 2.01234 4.9307 18.5875 -0.396869 6.79438 5.12717 
22655 1 6.37544 4.67075 12.8239 -12.8296 5.03443 -6.65214 
25194 5 1.89442 -1.62182 13.1754 -0.309799 -12.8106 -20.1581 
25189 2 3.31878 -1.5892 13.8009 44.0037 -88.0038 92.3569 
25309 7 2.21813 4.09555 17.3024 11.9384 -1.65723 -1.80155 
22683 6 6.32442 0.872052 15.4514 -1.37979 -11.362 6.94086 
22644 3 6.89231 4.51154 15.1971 15.8834 -16.4317 5.73241 
25472 9 2.01986 2.97106 19.0206 4.00861 15.3515 -93.4715 
22651 7 5.52249 0.801146 16.0783 7.68105 3.09712 4.78235 
22650 7 6.92892 1.31289 16.03 -5.8461 4.50306 0.593421 
22759 7 4.46245 4.66864 18.7793 -0.403192 -0.797901 1.3056 
22959 9 6.20122 4.27579 15.9122 -13.3592 4.43028 -2.82851 
22649 6 4.14809 4.01216 16.8336 -9.9049 -2.16101 -26.1024 
22684 7 4.07065 3.05672 16.614 -4.88467 0.571799 0.297674 
20023 6 6.81002 2.41065 17.7049 -16.4085 -28.2728 -36.1134 
22685 7 3.8489 4.46941 16.0423 -1.84665 0.749586 0.514865 
20062 7 6.18769 3.12597 17.8673 -0.551728 4.62051 -1.24309 
25201 6 0.299413 0.367879 18.9036 -8.90558 -6.37711 4.18088 
22687 7 6.15683 1.21918 18.6833 3.80136 15.6636 5.5058 
25237 7 0.836266 1.1747 18.8534 6.55699 1.11423 -2.50502 
25471 9 3.61823 -1.97286 19.0766 -0.664408 0.838678 -7.48697 
25227 3 2.85867 -1.49362 19.3089 -13.7384 -18.3341 4.05045 
25450 7 0.0635389 19.3791 18.7109 0.295713 3.50773 -1.81289 
20061 7 7.54143 2.59116 18.3019 2.18823 -1.08374 17.7975 
20022 6 13.7164 0.979939 17.3079 6.31878 -1.28244 29.2193 
20101 7 9.4872 1.52516 16.0015 0.60158 8.52825 6.85247 
22931 9 9.71547 -0.69657 15.7294 -0.496785 13.0615 -21.9253 
22643 5 10.3472 2.57234 12.1955 -3.24205 -4.13299 -8.8462 
20083 1 12.0539 4.57824 12.2941 20.1355 11.8909 23.6067 
22642 5 7.78438 2.32799 12.6693 -1.53703 -8.71502 -19.5211 
22572 5 10.3915 -1.19034 12.4814 -1.64816 -7.73861 -7.19361 
22647 5 8.01803 -1.15376 13.3887 10.6597 -15.0569 -19.1111 
20029 1 12.4935 0.818447 12.5759 -1.09849 8.57596 -15.2209 
20095 5 13.8672 2.81253 13.0198 -5.34098 -11.6858 -13.961 
22637 2 9.23854 2.21284 13.1776 49.327 16.2012 65.2525 
22565 2 9.47766 -0.798971 13.6553 37.7566 62.8499 51.0055 
22641 4 9.6135 0.790931 13.697 -34.6739 -6.49352 -36.5153 
22640 4 9.10375 3.21619 14.2882 -15.3838 -15.6724 -5.53559 
20060 6 12.0717 1.43188 14.9186 -15.7705 -4.42008 -3.86057 
20025 7 11.1733 0.992808 15.0109 22.6909 5.87596 -0.0235478 
22638 8 8.73271 4.49883 15.4706 19.7179 42.8133 42.2892 
20024 7 12.5155 1.41602 15.8357 6.92733 1.73604 12.695 
22688 6 9.51739 4.05868 17.1952 -3.75665 4.50664 31.0136 
20130 6 9.5058 0.846062 16.6925 -4.90451 -0.588937 11.4591 
20016 5 13.8732 -1.10957 13.0216 3.27312 -14.2701 -18.8534 
20100 7 8.77972 1.07375 17.3139 6.13947 0.750431 3.21781 
22967 7 9.15243 4.53961 18.0704 1.5014 3.94564 15.6908 
22571 3 9.94754 -1.35391 15.0125 -25.5558 -25.035 0.119185 
20135 7 11.9458 0.408617 18.499 9.68051 3.73953 -0.349418 
20134 7 10.3649 0.303492 18.4337 9.53485 4.35565 7.94052 
22955 7 9.47045 3.00462 17.4403 0.55266 5.91087 -5.7552 
20063 7 14.363 0.469459 16.8103 -1.48086 6.65385 1.45839 
20098 7 11.2713 4.28665 18.5298 0.481441 -0.0792396 -3.83779 
20064 7 14.155 1.39697 18.1456 -0.543872 8.18715 15.0621 
20096 6 11.1292 0.329449 19.0899 0.143665 -13.2068 6.59528 
20379 9 14.2665 1.96501 15.3254 15.374 8.1217 19.991 
20099 7 12.1833 5.08322 19.215 -0.105398 -0.643565 -3.0062 
22918 9 9.09219 -0.688056 19.0153 14.6882 4.19571 65.9677 
20367 9 15.2947 5.54479 19.079 10.1137 4.61908 -25.184 
20378 9 15.4007 0.0444891 14.8487 2.41344 79.2371 25.2697 
20012 2 15.2359 -1.61828 13.5115 11.9309 -26.8725 73.6339 
17469 5 19.9364 -1.30131 13.4326 -8.74128 -11.3921 -13.0979 
20017 5 16.2815 -1.21496 12.5395 7.59534 -1.60668 -8.50109 
20020 5 16.2894 2.4578 12.6312 -3.13098 -5.50062 -8.22278 
17477 1 18.4308 4.50707 12.7514 50.8699 44.4113 60.4916 
17458 1 18.218 0.637135 12.871 56.1553 41.7523 13.5454 
17464 5 19.9587 2.61017 13.0923 -3.6511 -10.9957 -13.4862 
20014 3 15.3481 -0.927596 14.9324 -16.1002 -9.20354 27.1303 
20013 2 15.2355 2.86552 13.6686 25.2948 -21.6818 57.5611 
20089 4 15.4847 4.41259 13.8828 -11.1034 9.54587 -17.0386 
17460 2 21.2934 2.30374 13.8302 64.73 59.859 100.138 
17386 2 21.2555 -0.760946 14.0881 58.1495 156.466 32.5672 
20019 3 15.182 1.90608 14.9143 -4.7457 -3.5431 16.5992 
17466 6 17.9216 0.702647 15.4237 -18.4625 -16.7684 19.9137 
17494 7 17.3495 1.42306 15.7346 7.70623 4.80278 -2.14969 
17493 7 18.6649 0.924134 16.0666 4.58103 7.00722 1.50132 
17471 6 18.3758 2.73479 17.5654 -50.3072 -42.9 -37.4818 
17510 7 19.1405 2.82414 18.1395 16.2367 -0.741417 10.6629 
17509 7 17.9281 1.9711 17.9461 0.571904 1.18393 -3.92791 
17463 4 21.2166 0.803669 14.1626 -13.76 -1.98816 -29.3626 
17508 6 18.5075 4.47065 15.3378 4.39734 -5.00645 14.5667 
14959 7 20.6932 -0.141455 18.628 0.114931 3.05187 14.6386 
14960 7 20.44 0.824504 17.4424 -1.01776 3.29185 -0.909976 
17391 3 21.5772 -1.43154 15.4067 -21.8695 -27.0578 -14.4812 
17825 9 21.1096 -0.953719 16.1482 2.42849 2.14705 -3.81763 
17462 3 21.5144 2.98371 15.2006 -17.4458 -21.2459 9.39206 
14918 6 20.5741 -0.086808 17.6167 2.51157 -15.5199 17.5442 
17826 9 21.0576 3.83153 15.235 -0.797678 24.1745 3.66425 
17544 6 17.0758 4.57291 18.8412 -17.4097 -24.0723 26.2419 
17582 7 17.3946 3.8947 18.1572 2.19255 -2.98029 -4.02598 
17472 7 19.505 4.82534 15.3892 24.3282 2.80891 -6.35229 
17499 3 20.7277 2.51526 19.2045 -11.1542 -19.0856 -2.69492 
17813 9 21.5141 3.12753 19.1501 23.2076 26.6335 17.3993 
17473 7 18.6043 3.75963 16.0397 3.20341 5.93846 2.39936 
17503 6 16.8052 0.463322 19.1244 -12.9893 4.01424 14.5575 
17457 7 16.158 -0.308508 19.02 12.8771 3.80247 -1.5141 
14905 7 22.6321 5.03725 18.8021 13.4321 7.51094 -6.26702 
17583 7 17.859 5.19323 18.9076 5.8061 -2.12544 -4.36369 
17474 7 17.3385 -1.53198 15.5765 9.03866 -3.52313 -5.18708 
20371 9 15.4826 28.2814 19.3843 5.69243 4.03825 5.38262 
25312 7 -0.288738 4.63796 18.5322 13.0497 -0.305542 1.87535 
15272 9 28.3151 -1.53835 15.6796 8.31934 1.41996 24.2497 
12293 7 28.9235 1.08048 15.6779 29.9349 5.64038 -9.69478 