ITEM: TIMESTEP
300000
ITEM: NUMBER OF ATOMS
25517
ITEM: BOX BOUNDS pp pp ff
-3.8959205201285124e-01 6.0088135642019459e+01
-1.9452389155355383e+00 5.9115524189537531e+01
-1.2206056431032383e+01 1.1390111600702880e+02
ITEM: ATOMS id type x y z v_stressx v_stressy v_stressz 
25292 7 5.89857 3.03966 7.5916 -2.4603 -8.43146 -6.05314 
25293 7 5.98077 1.53035 7.7064 -1.89861 -5.84964 -1.83994 
25252 6 5.35811 2.25094 7.51796 -6.34459 -3.29074 0.125097 
25287 5 0.61597 0.755495 10.7564 7.73669 -1.87139 4.58389 
25283 5 2.94291 4.2301 9.842 10.8581 6.3919 -13.0346 
25281 4 1.3887 2.44216 9.07367 -13.2268 1.701 -16.471 
25280 4 1.07853 5.00258 8.46007 -12.9091 -8.65879 -6.89262 
25277 2 1.45655 3.94107 9.49571 52.255 36.9119 80.0687 
25215 5 2.99957 0.588718 9.72621 -14.5902 -10.1228 -11.3384 
25209 2 1.59287 0.935181 9.44522 8.98238 -57.0731 72.1809 
25188 1 4.8243 2.58953 9.97468 5.67178 1.68512 14.3208 
25214 3 0.796635 0.0137284 8.44439 -2.24267 -4.59047 2.93338 
25282 5 0.520916 4.37471 10.6565 -15.0016 -14.3217 -17.6156 
25458 9 1.40812 -0.435335 7.83607 0.0267674 2.10362 1.72425 
25206 1 4.52732 -1.17961 10.115 34.5478 37.6762 19.5834 
22660 5 6.52822 0.875659 10.2203 -1.10143 -5.57341 -14.076 
22735 5 6.623 4.87348 10.5536 2.31481 -9.23855 -14.3336 
25505 7 1.83983 5.65447 5.50835 -0.0551467 -0.161884 -0.297186 
22662 3 7.17647 4.29529 8.22411 -12.2436 -23.2899 -18.6699 
22658 3 7.30314 0.346889 7.89736 -15.0722 -15.4131 -11.5936 
22905 9 7.65252 -0.485879 7.46068 0.0256187 -0.411115 -4.48141 
22906 9 7.50322 4.57024 7.35908 -2.68315 4.3763 9.94123 
20115 7 11.1372 2.292 6.49758 0.44908 -0.00238573 -1.13967 
22656 2 7.7059 0.365729 9.40584 23.0415 75.5343 63.2694 
20116 7 12.1136 2.88755 7.40659 19.7225 6.78774 2.90687 
20078 6 11.1398 2.86581 7.23657 -15.9884 -11.79 1.29514 
20106 3 13.741 4.72985 7.46261 -15.9543 -11.1203 41.9058 
22657 2 7.60419 5.1024 9.41016 54.6165 -15.487 22.0967 
20036 3 13.619 0.47741 7.57109 -16.7725 -19.7732 16.2698 
20107 4 13.6664 2.6833 8.8298 -18.274 -14.2992 -34.6799 
20104 2 13.8784 4.18168 8.97251 32.3924 36.3515 94.0725 
20031 2 13.7132 1.1448 8.96008 63.0284 164.813 17.1858 
20108 5 12.6966 4.70757 9.81807 14.588 11.9177 2.02289 
20112 5 12.4932 0.846951 9.91178 11.087 -0.143748 7.87489 
22654 1 10.4859 2.78478 9.68506 11.4229 10.1221 10.9912 
22661 5 9.03983 1.11007 9.56315 -7.70037 -6.81678 -16.2998 
22663 5 9.10858 4.7108 9.73761 4.26811 -12.8314 -15.0109 
22563 1 10.886 -1.13469 10.1589 -1.04321 -0.484781 -25.3448 
22659 4 7.7627 -1.12896 9.68153 -9.55841 -34.7364 -34.4197 
22629 6 11.3751 -1.065 7.76545 -16.8455 4.93755 2.35841 
22669 7 11.9249 -0.207968 7.44815 1.31069 5.23776 -1.25668 
20352 9 13.8605 1.22514 6.87465 0.762782 12.5801 14.7122 
20189 7 14.2777 3.18994 6.51456 0.321309 13.5749 8.42049 
20353 9 14.543 5.23857 7.22704 7.76912 13.2197 16.8629 
20148 6 14.5671 2.45013 5.87332 0.142861 0.0548943 0.100728 
22740 7 11.2703 5.5881 6.8279 3.30519 1.49355 -1.11547 
22738 7 8.76742 5.41578 5.90114 -0.665199 0.720285 -1.30499 
22701 6 7.85394 5.37142 5.69312 0.401193 -0.393021 7.78511 
22739 7 7.886 4.86164 4.87022 -0.0107701 0.0205567 0.00850833 
22670 7 11.9327 -1.89861 7.72342 1.07425 1.69801 -5.20334 
20188 7 15.4435 2.20345 6.22553 0.819653 -0.128015 0.0697526 
20037 5 15.0057 0.565552 9.66218 -0.887661 -6.95502 -13.342 
20118 7 17.8719 2.63796 7.70159 5.67907 -0.291339 -2.91292 
20117 7 17.6995 1.17882 7.44002 3.03705 2.57998 -4.78128 
17799 9 19.455 -0.241526 7.33338 0.361082 6.61105 17.813 
20077 6 17.1284 2.01775 7.60787 -23.3113 2.15543 26.7543 
17484 3 19.536 4.02271 8.03155 -4.3206 -2.64885 -2.43179 
20109 5 15.1822 4.68195 9.53593 -5.97057 -7.34947 -16.9435 
17480 3 19.3808 0.510653 7.95906 -16.6084 -31.9533 11.7372 
17478 2 19.7385 0.13463 9.405 33.4361 35.734 49.3121 
17479 2 19.7269 4.90401 9.32133 47.8817 113.47 59.8871 
17485 5 21.0972 4.45706 9.83859 4.83296 -15.9378 -16.1084 
17483 5 21.125 0.57616 9.92672 4.94484 -10.2966 -13.5719 
17482 5 18.7273 0.612358 10.4453 0.702106 -4.01311 -6.60429 
17560 5 18.5746 4.39351 10.2378 -1.22792 1.80771 -11.346 
20011 1 16.7883 2.43064 10.1919 50.4455 45.7877 46.707 
20028 1 16.5417 -1.33752 10.1131 23.9139 17.554 10.5335 
17481 4 19.613 -1.37684 9.30614 -12.4905 -19.7369 -38.2311 
17800 9 20.2785 3.41394 7.96437 0.338744 -2.86235 -5.44151 
20002 6 16.2002 -1.21507 7.53432 -10.5625 -7.61871 13.5856 
20044 7 15.5857 -0.449442 7.68688 4.42059 8.62413 -2.73689 
20043 7 16.3516 -1.12082 6.60323 0.28619 0.203516 -0.853781 
17377 6 19.8786 -1.6773 6.3322 0.245003 -0.141256 -0.0122516 
17415 7 20.5742 -1.92657 6.98281 2.8978 2.51808 2.05333 
14864 7 23.6314 3.83266 7.75133 5.59785 -4.66805 -1.43327 
14825 6 23.2988 2.969 7.82153 -9.30286 -3.88341 1.36111 
14863 7 24.1611 2.53617 7.90018 3.88888 -1.29523 -0.602997 
17476 1 22.5994 2.5974 10.2549 -65.8384 -40.9071 18.8901 
14928 3 25.5679 4.59148 8.20809 -31.584 -50.2068 -46.804 
15246 9 24.7065 0.00657495 8.04332 8.01382 10.8074 19.7961 
14856 3 25.5405 0.383335 8.16649 -12.6661 -14.8353 11.1026 
14929 4 25.6618 2.47021 9.27814 -18.0546 -35.1055 -34.0864 
14851 2 25.7726 0.935136 9.6021 20.8048 -188.944 76.6811 
14926 2 25.8313 3.99121 9.61155 29.6792 146.14 88.1016 
14857 5 27.172 0.513951 10.0212 -9.80105 -11.8769 -20.7145 
14931 5 27.2703 4.30837 10.1061 -28.3525 -11.5066 -17.4952 
14832 1 28.9014 2.41808 10.4207 15.523 12.3302 58.6058 
14930 5 24.8007 4.37565 10.6576 12.3193 -4.61237 -12.6565 
14934 5 24.7275 0.511689 10.6576 4.36768 -4.30633 -2.28312 
17384 1 22.8636 -1.16741 10.5973 -1.3669 4.68295 -12.8731 
14848 1 28.7231 -1.43222 10.2624 14.8281 19.4009 -11.962 
14898 6 29.1786 2.45721 7.88738 -13.829 -15.3415 6.01744 
15247 9 26.3681 4.66526 7.72718 -1.61005 -1.08727 -15.3001 
14826 6 28.1456 -1.3901 7.71182 1.05089 -3.68274 26.8169 
14861 7 27.5228 -0.59177 7.7367 5.03953 5.88633 -2.24965 
14862 7 28.7608 -1.17174 6.9734 0.156361 0.0394115 -0.0646721 
17565 7 23.8543 5.62398 7.62904 12.5376 3.78775 -1.48854 
17491 7 23.3409 -0.830267 7.25909 0.101863 0.073572 -0.461476 
12347 6 29.4782 5.3719 8.00631 -15.3336 -7.35168 3.90354 
14939 7 29.2544 3.33895 7.63004 0.455113 -0.922678 -1.18841 
17492 7 24.1978 -1.77871 8.08715 8.24264 2.49757 -6.40616 
17450 6 23.2929 -1.42611 8.02021 -21.6665 -7.04238 19.5595 
25291 7 5.22591 6.53661 7.32751 1.21145 1.66601 -3.08538 
25290 7 3.82687 6.55555 6.86919 -0.664477 1.66449 -4.33501 
25253 6 4.33607 6.71227 7.63615 -9.82017 -11.6464 1.5972 
25517 7 1.84279 7.29014 5.50902 -0.0240523 -0.0600767 -0.551413 
25313 6 1.21101 6.45671 5.78137 5.92084 -5.23271 30.2537 
25362 7 1.19888 10.608 6.31952 -0.0168309 -0.0214217 -0.011719 
25275 1 4.36027 6.50413 10.1833 4.29972 13.0595 9.0762 
25278 8 0.639374 6.49188 7.63496 53.1931 32.0554 10.2628 
22958 9 3.89074 10.3239 7.2783 -3.46215 1.50055 0.320739 
22732 3 4.70032 10.3548 7.96195 2.31061 -12.7128 13.5686 
25359 5 0.701437 8.49354 11.0939 -9.93463 -10.7477 -16.0477 
25356 5 3.08021 12.146 10.2169 9.67122 0.0390684 -12.5845 
25355 5 0.535314 12.2845 10.6518 -2.79307 -5.69857 -8.34755 
25354 4 1.48185 10.2856 9.54639 -13.9189 13.2566 -26.3462 
25353 3 1.39194 12.6945 8.41831 -12.9658 -7.8657 5.07979 
25351 2 1.63225 11.8296 9.72046 42.1188 50.1575 65.0287 
25286 5 2.93236 8.28049 10.0288 -5.7228 -16.0574 -18.6079 
25285 4 0.892127 7.85648 8.74192 -20.9164 -18.6306 -4.8069 
25279 2 1.49492 8.71367 9.83417 17.1454 96.6949 74.611 
25259 1 4.86194 10.2149 10.3927 8.32711 9.58608 61.0886 
25327 6 1.60703 9.7444 6.34125 2.30945 1.44387 -0.986284 
25363 7 1.38635 9.50649 7.2315 0.552871 2.64869 1.59367 
22807 5 6.5607 12.2849 10.8694 -15.7926 -14.3595 -17.1609 
22730 5 6.65234 8.34528 10.5398 -4.73315 -14.8521 -12.7243 
22726 8 6.48614 10.4372 7.49213 -1.51481 18.1458 -26.0653 
22761 6 7.05704 10.8316 5.66761 1.75406 2.48207 6.81251 
22733 4 6.9844 11.7221 8.61372 -11.0407 -12.852 -2.80978 
15134 5 26.0818 25.6569 13.569 -16.0345 -8.26745 -13.9229 
22728 4 7.23016 9.05362 8.29312 -12.988 -20.3923 -5.77413 
22953 7 7.91026 10.1976 5.3838 -0.0654914 0.100968 -0.651566 
22965 7 7.33207 11.8331 5.45166 -0.0486562 0.142385 -0.276536 
22741 7 11.5 7.01103 7.05421 2.62383 -0.0202069 -1.54335 
22700 6 10.8104 6.36788 7.23855 -16.3104 -2.23732 18.149 
22636 1 10.9188 6.69179 9.82281 4.45438 9.47778 11.4571 
22729 4 7.48133 6.61374 9.11192 -11.3167 -8.42389 -27.5186 
22668 7 10.5831 8.59932 7.42923 1.94957 4.38962 -3.18929 
22725 2 7.70374 8.13304 9.39568 27.7482 32.7243 98.0445 
22727 2 7.53968 12.6129 9.75953 17.9494 133.579 80.498 
22630 6 10.7174 9.56513 7.55044 -8.281 0.620551 5.27127 
22667 7 11.6785 9.56 7.58776 1.28485 0.756389 -1.31721 
20110 3 13.3722 8.00482 7.87861 -11.1092 -1.23794 -3.51638 
20176 4 13.3404 12.979 8.33811 -6.65087 -6.9734 -4.11415 
20177 4 13.5478 10.5013 8.95979 -6.52351 -0.411051 -16.4912 
20173 2 13.7057 11.9908 9.40771 35.0781 -4.3255 77.8794 
20105 2 13.7244 8.93675 9.12343 -0.816015 8.09303 86.1881 
20178 5 12.5598 12.2564 10.4158 -7.98555 -12.5385 -21.9186 
20183 5 12.8988 8.51128 10.3587 -3.81704 -11.3825 -8.07999 
22734 5 8.97942 12.4092 10.1072 -12.4521 -12.5447 -17.203 
22723 1 10.5486 10.4168 9.97488 -2.97306 4.29351 9.8031 
22731 5 9.11607 8.33188 9.85191 -15.7611 -24.6639 -22.1946 
20354 9 13.8366 7.1662 8.02076 -1.06812 -12.2952 -25.5609 
17489 7 15.3685 7.53149 7.27379 -6.18911 -2.26222 -3.75998 
17490 7 16.4114 7.08597 6.51817 -0.224638 0.0343243 -0.30932 
17451 6 15.9423 6.78743 7.29642 -18.856 -17.2681 17.1773 
17555 4 19.5148 6.40419 9.24816 -11.0592 2.48666 -18.0395 
20102 1 16.4765 6.46221 9.86905 10.7215 0.310854 17.7843 
20179 5 15.0791 12.3713 9.86379 2.6545 3.69708 -11.3192 
20111 5 15.0953 8.51182 9.52882 -26.3174 -14.1686 -14.5143 
17802 9 19.4832 11.878 7.51898 -0.104159 -0.0954095 0.162974 
17554 3 19.6317 8.68088 7.9737 -1.93467 -5.35477 6.13212 
17801 9 19.3812 9.57046 8.10065 0.698962 12.2384 6.40892 
17558 3 19.3121 11.5602 8.35726 -4.50519 -2.18845 -0.411287 
17552 2 19.7279 7.97853 9.40881 25.8939 58.4119 57.992 
17553 2 19.7446 12.5897 9.5152 44.5902 43.8325 68.0307 
17559 5 21.2085 12.1329 9.83297 6.70081 -0.546186 -10.3892 
17557 5 21.1128 8.33065 9.93016 0.769747 -11.732 -15.5933 
17556 5 18.49 8.44005 10.194 12.5899 -3.85654 -6.45003 
17631 5 18.754 12.2185 10.6826 1.81599 -5.61987 -5.15442 
20084 1 16.8199 10.2664 10.3615 -11.075 -4.11615 -1.05209 
17566 7 22.7737 6.49197 7.09029 0.0945529 0.0193609 0.053224 
17525 6 23.2369 6.30614 7.97014 -30.0509 -6.233 16.6478 
15249 9 26.4199 12.3989 7.50271 0.852071 0.691448 0.263066 
14924 1 28.8784 6.30371 10.2599 25.0766 20.4042 0.6401 
17459 1 22.8153 6.36449 10.4136 -83.0105 -67.8196 39.6416 
17550 1 22.6813 10.1773 10.109 18.8638 17.8537 8.38851 
15248 9 25.0074 7.30471 8.25379 6.75648 8.92998 8.78812 
15002 3 25.5553 12.1132 7.86039 -4.95238 -8.85386 8.82769 
14932 3 25.8534 7.69566 8.37038 -4.70158 -4.25212 1.29127 
15003 4 25.6929 10.0578 9.40228 -9.26354 -5.8856 -23.1253 
15000 2 25.8234 11.5586 9.33827 30.855 102.909 71.1538 
14927 2 25.9265 8.52626 9.67582 40.8974 67.3266 73.4355 
15005 5 27.2586 12.0307 9.65026 -1.90051 -12.7224 -16.4401 
14933 5 27.3368 8.19806 10.2714 9.3683 -14.0671 -17.4971 
15004 5 24.794 12.1885 10.2281 1.22116 3.24364 -11.7906 
14907 1 29.0423 10.186 10.3202 23.7075 18.7913 21.1836 
15008 5 24.7476 8.17989 10.6591 15.5401 -0.213617 -3.43161 
14899 6 29.4402 9.94521 7.67407 -3.26022 0.00820493 5.28852 
17637 7 24.0129 13.1402 7.48134 1.61516 0.654366 -0.173732 
25427 5 0.471403 16.2254 10.9577 6.40459 -3.67895 -4.69995 
25424 5 3.05777 19.7432 10.2643 -14.9711 -6.2413 -9.3319 
25423 5 0.62854 19.9386 10.7649 4.05064 -4.31574 -9.38086 
25422 4 1.53223 17.8586 9.5283 -9.84959 7.09742 -13.6136 
25421 3 1.35286 20.1653 8.46116 -3.2839 -2.60688 -0.113304 
25419 2 1.68921 19.4163 9.80763 -40.6445 140.615 62.7916 
25358 5 3.0433 15.9649 10.3935 6.01423 -1.27997 -11.0239 
25352 2 1.62447 16.359 9.9389 57.6106 3.0522 32.7601 
25333 1 4.76049 17.9652 10.8964 -5.30794 13.3795 -16.9575 
25357 3 1.27516 15.4524 8.77037 -12.7058 -18.2053 18.8763 
25460 9 1.6173 15.8283 7.87293 0.102669 0.366366 4.29709 
25349 1 4.58657 14.1062 10.6957 6.95258 16.1906 -14.0482 
22803 5 6.49129 16.0975 10.8756 1.22579 -0.534053 -0.468146 
22875 5 6.46084 20.071 11.1158 20.0169 8.4109 12.6344 
25459 9 1.48999 13.6574 8.56205 -0.775281 5.28609 -4.38341 
22801 3 7.03055 16.5942 8.55987 -2.36529 -6.9809 4.37443 
2179 7 -0.387305 20.8468 8.22815 14.4594 2.2543 -6.40084 
22805 3 7.32975 19.3599 8.91011 -8.86387 -8.87799 25.8461 
22908 9 7.54595 19.9046 8.12021 0.0149206 0.265228 6.54274 
22774 6 7.84223 14.1301 6.46407 2.02145 1.2163 1.82219 
22907 9 7.21638 17.5067 8.66763 0.0103947 20.2651 1.63072 
22800 2 7.69826 20.1918 10.1825 72.8562 58.3603 36.7973 
22810 7 9.52718 17.6319 7.67339 -2.00817 0.963686 -1.95524 
22775 6 10.3724 17.5576 8.1234 -18.2623 -9.16257 6.10657 
22811 7 11.0269 17.744 7.42304 6.12419 1.08507 -1.13889 
20249 3 13.6146 20.1923 8.5115 -17.6906 -16.3704 19.7086 
22799 2 7.50164 15.6895 9.76752 2.27074 21.1815 70.0584 
20181 4 13.1648 15.598 8.7498 -9.807 -32.0882 -12.1306 
20250 4 13.59 17.8559 9.69511 -14.3124 6.41172 -27.4146 
20247 2 13.6446 19.4223 9.89672 4.02066 30.0811 67.8156 
20175 2 13.7411 16.3389 9.95052 46.3327 116.804 84.6064 
20255 5 12.7826 16.0392 11.1348 -2.819 -11.3915 -15.5103 
20251 5 12.5994 19.887 10.8751 -0.853151 -0.0666682 10.7906 
22797 1 10.5866 17.8329 10.6706 2.94049 -1.43416 15.7226 
22804 5 8.85928 16.0465 10.2629 -4.589 -10.9531 -14.0079 
22806 5 9.15709 19.6726 10.6518 26.2097 -12.6466 -11.93 
20209 6 12.874 15.0323 5.7533 0.465963 -0.377946 1.47913 
20174 8 12.7095 14.4625 7.54514 27.452 11.1334 -53.9749 
22802 4 7.35344 14.1712 9.46207 -21.1772 9.26669 -29.0132 
22707 1 10.7485 14.2517 10.2767 11.6561 10.9613 -31.2753 
20180 3 10.8086 14.0423 7.95232 18.1237 -8.92017 5.03984 
20260 7 13.0324 18.8856 6.99744 0.139828 1.34878 1.28288 
20261 7 12.9162 17.3666 7.33817 -0.512059 10.701 5.60738 
20401 7 13.4229 15.9899 5.62814 -0.159396 0.313106 -1.27734 
20406 9 10.0189 14.4108 7.4707 -1.20952 2.87558 -2.35329 
20413 7 11.9327 15.1884 5.26927 -0.0682983 -0.0245162 -0.438671 
20222 6 12.7014 18.0477 6.67459 -0.762803 0.686949 -1.02385 
22813 7 7.7456 15.0607 6.62462 -0.0700414 -0.0463222 0.0677578 
22812 7 7.44152 13.8113 7.30537 0.752761 1.48837 6.53693 
17861 7 18.0327 18.1656 5.18632 -0.0413437 -0.0255778 -0.195316 
17849 7 19.1146 19.332 5.5722 -0.0513647 0.153285 -0.563571 
17657 6 18.7692 18.3451 5.88217 -4.92161 -2.73039 15.0517 
20252 5 14.9691 19.7344 10.5394 -8.7954 -13.6573 -17.9874 
20182 5 15.2166 16.0409 10.213 -4.19588 -20.5967 -13.4795 
17622 8 18.5634 18.0799 7.75046 32.411 28.0039 -13.7755 
17854 9 15.9449 18.6012 8.0719 -0.271573 2.04207 -3.21303 
17628 3 16.7563 18.0742 8.25458 4.00737 -10.0441 9.42784 
17624 4 19.3217 16.6826 8.46567 -7.88365 -11.5625 -3.73266 
17629 4 18.9827 19.4332 8.85904 -13.9304 -12.452 0.546841 
17621 2 19.6951 15.6526 9.54627 47.353 95.0151 80.5732 
17623 2 19.5501 20.2671 10.0023 55.2318 26.679 73.0755 
17630 5 21.0316 19.7719 10.2793 12.3619 -2.75029 -14.6318 
17627 5 21.1919 15.89 9.96206 0.944022 -17.7087 -16.2277 
20155 1 16.8424 17.9752 10.6946 2.55825 10.7124 -7.61509 
17626 5 18.7672 15.8963 10.7355 -8.75776 -8.62131 -11.6932 
20171 1 16.7158 14.1373 10.3208 5.22126 6.8827 -17.4798 
17625 4 19.606 14.0957 9.12525 -6.24033 7.75164 -11.4151 
17564 7 21.4906 17.2833 7.58657 -0.550908 1.60383 -1.1178 
17703 5 18.6795 20.0258 11.2014 -15.0736 -12.7969 -20.8944 
17709 7 19.905 20.6273 7.34679 2.94166 4.97838 4.26186 
20259 7 15.568 20.8847 8.4035 12.2307 3.60108 -2.27163 
17526 6 22.4132 17.452 7.70597 -7.79363 -6.88947 17.4432 
17563 7 22.8092 16.6576 7.3521 0.286492 0.378758 -1.82043 
17619 1 22.5682 17.9268 10.3236 11.0268 12.412 -39.6848 
15250 9 25.4259 16.554 7.3496 3.28376 4.23786 70.5354 
15006 3 25.6058 15.7572 7.92658 -17.5745 -12.4162 55.1852 
15072 4 25.3173 20.4252 8.40544 -13.1874 -8.03876 -2.97953 
15073 4 25.9599 17.9542 9.15621 -16.3721 5.93677 -35.4664 
15069 2 25.8295 19.4844 9.52152 48.1884 196.974 68.7377 
15075 5 27.2671 19.8707 9.91392 4.86641 -4.36315 -14.751 
15001 2 25.8934 16.4473 9.39988 33.1602 22.7097 33.3617 
15007 5 27.2951 15.9854 9.7832 -0.612635 -10.7379 -15.7266 
14980 1 29.1857 17.8209 10.1444 -12.8215 -20.3819 14.3913 
15074 5 24.8028 19.6389 10.6176 -6.00464 -5.46428 -18.8282 
15079 5 24.8396 16.1163 10.4638 8.46048 -3.65849 0.457403 
12533 7 25.4571 18.3754 7.23091 -0.324179 4.53929 6.17094 
17532 1 22.9834 14.1035 10.1761 9.68595 12.7 8.49715 
14998 1 28.6373 13.9834 10.0874 19.8924 24.8339 12.6062 
12492 6 25.1645 17.9196 6.43544 -1.29025 -1.73114 -0.968134 
12532 7 24.2391 17.8074 6.45162 -0.0670683 0.0147507 -0.215564 
17636 7 24.2982 14.6547 7.77674 3.21812 -4.63834 -4.4427 
17597 6 27.3956 19.7327 6.47718 -16.4747 -1.16841 0.924258 
17635 7 27.0344 19.9354 7.31032 6.44477 1.25944 -2.17672 
17596 6 23.5563 13.9987 7.66239 -11.4469 -1.64063 4.49155 
14974 6 28.7308 14.0837 7.53935 -5.82667 -11.0191 6.90959 
17634 7 26.9707 18.9124 6.11254 0.290668 0.571589 -0.151709 
15084 7 28.6931 18.2675 6.90767 0.609433 2.78577 -1.5006 
15012 7 28.1952 14.867 7.30744 1.78687 1.81469 -1.68605 
15044 6 29.2899 17.8272 7.55162 -18.5322 -15.6044 13.9341 
15011 7 29.5706 14.1102 6.99075 5.06368 0.896211 -0.194123 
25461 9 1.63963 21.1191 8.56579 -0.374515 9.05998 -5.98664 
25417 1 4.459 21.7465 10.9217 -16.7794 -19.5835 -11.909 
24923 5 0.754769 27.5218 10.9484 5.98332 1.88897 -1.55686 
25425 3 1.35108 22.98 8.77836 -10.8061 -8.4464 18.4615 
24927 5 0.559259 23.61 11.1153 15.4355 -1.76546 7.68314 
25426 5 3.10363 23.8017 10.4009 3.67838 -9.38712 -9.20404 
25420 2 1.64879 23.9265 10.0018 36.1894 98.6748 57.4701 
25401 1 4.97038 25.5329 10.7242 11.7223 5.38973 -0.0714896 
24924 5 3.18735 27.1766 10.4054 -6.24438 -6.08567 -13.5555 
24922 4 1.38256 25.4386 9.75254 -16.5606 10.2079 -16.6992 
24919 2 1.7823 26.9563 9.95451 1.88172 145.016 59.3191 
24921 3 1.55556 27.7248 8.56562 -3.30701 -0.975804 8.30174 
25462 9 1.60156 23.3783 7.96981 -0.052744 0.119311 1.81641 
22871 5 6.64021 23.6959 10.9095 4.81911 -4.78997 -4.74741 
25451 9 2.36751 27.8615 8.13061 0.056291 0.484201 1.55326 
22375 5 6.78156 27.3777 11.2762 2.10459 -3.8189 -4.65954 
20355 9 13.7553 21.1037 8.67011 -2.53645 21.4072 -0.889995 
22873 3 7.36095 26.8242 8.94079 -1.92323 -3.02179 22.2938 
22910 9 7.83453 27.1872 8.16884 0.0207787 0.305976 5.20152 
22881 7 10.5673 22.2037 7.78641 0.179478 0.152985 -0.582856 
22880 7 12.0072 21.7432 8.22322 12.0885 4.48285 -4.47025 
22869 3 7.56442 24.0265 8.5961 -0.887465 -1.30733 0.709436 
22842 6 11.0399 21.8185 8.50693 -11.6446 -8.73648 2.18366 
22909 9 7.42422 24.9915 8.72358 -0.255338 9.50855 -0.575169 
22870 4 7.80675 21.6814 9.76784 -10.2581 12.9354 -14.436 
22781 1 10.8959 21.6885 11.0129 -26.65 -19.33 22.3861 
22868 2 7.76545 27.7412 10.1816 39.0711 98.0911 40.0992 
22867 2 7.78902 23.2324 9.92461 55.5563 190.374 72.1129 
22381 7 12.0152 26.341 8.4485 11.0961 9.29022 -1.4744 
20253 3 13.4682 23.4016 8.82795 -29.5193 -27.7608 7.1999 
22380 7 10.8121 26.2531 7.54966 0.0755533 0.107394 0.0969226 
22342 6 11.2091 25.8188 8.3988 -19.5244 -2.94139 29.8861 
20317 3 13.3219 27.8427 9.08682 -10.5199 -13.3719 -8.59394 
20248 2 13.7696 24.0294 10.2263 9.6571 4.33099 105.827 
20318 4 13.624 25.5447 10.0164 -29.56 -19.3976 -42.1506 
20315 2 13.7788 27.0543 10.3348 52.6037 -14.1313 79.8745 
22865 1 10.6865 25.3992 10.9226 11.929 11.4279 14.9242 
22872 5 9.17462 23.6871 10.462 5.28153 -15.5339 -13.8052 
22874 5 9.24947 27.6706 10.5948 6.48784 -9.71392 -10.2611 
20356 9 12.5954 23.6209 8.49206 10.2767 3.86853 -9.983 
25431 7 14.1509 26.52 7.83751 1.08921 4.75871 6.71329 
20323 5 12.8525 23.6161 11.429 1.63648 -8.04817 1.05099 
25430 7 14.093 24.9955 7.86813 1.70053 4.76604 10.3939 
25395 6 14.4016 25.7329 7.27378 -0.140916 0.0895317 -0.159208 
20258 7 15.2294 22.3163 8.12146 1.36672 0.139843 -1.39966 
20223 6 16.0015 21.7513 8.2238 -7.3635 -1.29198 8.97668 
20245 1 16.5342 21.695 10.8038 16.2384 20.6766 35.7342 
17698 4 19.4354 21.7483 9.56107 -12.5286 -4.10799 -29.3584 
20320 5 15.2214 27.4242 10.856 4.48854 -11.1477 -14.6676 
20254 5 15.1801 23.5949 10.561 -16.1339 -11.5594 -19.9753 
20329 7 17.2434 26.6466 8.28058 4.03931 3.22752 -3.50483 
20328 7 16.0419 25.8023 7.61998 1.71025 -0.0104571 -0.0680727 
17803 9 18.6355 24.4714 8.19816 9.19098 9.25731 -0.474868 
20290 6 16.6573 25.8385 8.42977 -27.3697 -4.91305 7.47325 
17697 3 19.4666 23.9299 8.24968 -7.72525 -15.6888 6.72263 
17701 3 18.7572 27.5768 9.07536 -11.6405 -29.6584 -3.53445 
17695 2 19.6311 23.298 9.64847 3.38395 6.05448 80.6654 
17696 2 19.6976 27.9701 10.2409 34.4097 100.743 89.1287 
17700 5 20.9899 23.6351 10.1729 -17.576 -7.57076 -18.7426 
17702 5 21.0953 27.3466 10.1236 7.42348 -13.7 -20.2326 
17699 5 18.7076 23.7838 10.7613 -3.06537 -4.03425 0.224929 
20229 1 17.0048 25.6018 10.9426 18.5469 15.1576 -9.31019 
17708 7 20.0702 22.1005 7.0657 -0.228336 1.40829 0.779415 
17670 6 20.1319 21.2549 6.64674 -0.761989 0.83603 -1.25163 
17707 7 20.7868 25.2363 7.6314 4.6908 4.93681 -0.0152026 
17706 7 21.1787 26.5559 8.43819 0.186877 6.5543 6.98446 
17671 6 21.5933 25.7538 7.94146 -0.520954 -4.94476 4.87281 
17804 9 18.1596 28.2261 8.79174 4.34211 -0.344601 -3.00395 
15302 9 22.12 22.0167 7.2663 -10.7413 2.29635 -0.605485 
15082 7 28.9341 21.4367 6.98265 -0.103551 1.92764 -3.00899 
15309 7 26.1711 21.1856 5.56242 -0.0502509 0.354779 -0.581093 
15297 7 25.7773 22.9358 5.36905 0.0255803 0.422496 0.0407998 
15076 3 22.8653 21.7306 7.945 5.15685 -10.3937 6.60595 
15105 6 25.4296 21.9972 5.7434 2.48036 2.77289 8.73212 
15067 1 28.5009 21.8246 10.3102 6.89311 13.4597 9.20864 
17603 1 22.8719 21.8054 10.3091 41.4273 31.2383 57.8155 
15070 8 24.6898 21.8654 7.53391 8.85186 22.2221 -5.12096 
15157 7 24.761 24.7113 6.5409 0.122126 1.46932 -2.15039 
17693 1 22.4585 25.6458 10.3024 35.306 46.773 65.4591 
15118 6 24.3516 25.0692 5.80024 0.214174 -0.0195499 -0.0815768 
15156 7 23.4675 25.4068 6.08223 0.348674 0.0674081 -0.0145376 
12750 9 28.7793 27.0604 8.02173 -18.125 -1.26513 -3.49368 
15145 3 25.8709 28.1424 8.32624 -25.2979 -10.257 24.0615 
15077 4 25.2347 23.1977 8.50469 -14.9676 -21.9773 -12.1401 
15146 4 25.5466 25.6818 9.29943 -7.92427 17.8121 -15.5779 
15143 2 25.8227 27.2278 9.63665 34.4572 58.2597 41.6946 
15071 2 25.6377 24.1622 9.58877 43.5062 137.682 68.2754 
15078 5 27.0823 23.775 9.8664 3.19136 -1.6383 -11.898 
15148 5 27.2019 27.5255 10.2775 11.2671 -13.3152 -15.6613 
15051 1 28.9278 25.6837 10.4438 0.50339 13.295 43.5509 
15147 5 24.7278 27.7419 10.5663 3.73296 -2.08198 -7.80926 
12524 3 29.1596 26.0649 8.01414 -11.324 -1.37159 8.89923 
15045 6 29.2043 21.7754 7.82857 -18.6276 -11.1756 4.98007 
15251 9 25.5134 27.6474 7.63837 -0.0612093 -0.273322 15.5657 
15151 5 24.6677 23.8201 10.7274 -4.83021 -8.11488 -14.4667 
25272 7 0.386449 5.08073 16.0053 0.347097 1.39942 -3.14366 
25198 5 4.5419 2.55475 12.6561 -16.4283 -9.98486 -10.6175 
25195 5 4.3158 -1.09258 12.7632 -1.38092 -4.07818 3.43685 
25511 9 -0.102694 0.613407 16.0307 -17.5166 5.14609 -0.878777 
22635 1 6.05896 0.692999 12.8525 -35.6062 -14.1044 -16.0727 
25268 5 2.06322 2.89899 12.9931 0.584097 -9.53459 -21.6754 
25258 1 0.250924 4.4912 12.7638 2.75835 -3.15326 -1.86169 
25207 1 0.476342 0.786529 13.0733 11.595 39.1103 24.4438 
25191 2 3.47612 3.03985 13.5769 21.1271 142.776 60.5552 
25263 4 3.57926 4.53329 13.9916 -27.2382 12.2121 -30.6876 
25197 4 3.26023 2.0922 14.7531 -14.2743 -29.7064 -14.0855 
25192 4 3.04502 -0.482259 14.848 -11.1779 -23.9263 -7.94536 
25196 3 0.622869 0.983799 15.3949 9.28867 -15.1595 8.25209 
25190 8 2.48614 0.87425 15.7835 -17.7019 -7.6828 -75.2166 
25240 6 3.10701 1.15416 17.5309 -26.7127 -20.3743 -18.2735 
25519 7 2.90956 0.386743 18.307 5.67516 20.7452 -18.8891 
25507 7 3.18351 2.05702 18.0672 -12.1809 -8.83534 -50.6157 
22649 6 3.68244 4.23705 16.8869 -49.802 -8.91464 -54.2795 
25308 6 -0.00449594 4.84971 15.1781 -29.8503 -8.4726 -12.5402 
25270 6 1.21326 4.49371 17.904 -47.4943 -20.4259 -14.6033 
25310 7 1.56081 4.82101 18.7536 -1.46275 8.98048 0.72317 
22655 1 6.37544 4.67075 12.8239 -1.85833 5.87313 -6.0339 
25194 5 1.89442 -1.62182 13.1754 -0.314306 -14.1424 -21.619 
25189 2 3.31878 -1.5892 13.8009 43.8469 -54.5062 96.4071 
25309 7 1.94555 4.43476 17.3087 -1.39677 -0.00197613 -11.5345 
22683 6 6.04575 0.595097 15.2262 -23.1159 -8.47181 -10.9524 
22684 7 3.66792 3.35404 16.4014 -0.847017 3.27144 5.9388 
22644 3 6.78386 4.83542 15.1749 2.85914 -12.2606 3.64777 
22759 7 4.35989 4.47863 18.39 10.4516 0.485467 -0.13649 
22685 7 3.93096 4.79801 16.1826 -0.311345 -2.96245 5.47232 
20062 7 5.89234 1.49088 18.1084 11.6618 3.55211 -1.34721 
20061 7 6.11547 2.88561 17.7924 4.70825 -0.156787 0.937225 
20023 6 6.59062 2.05125 17.6667 -21.7113 -12.9913 -30.2874 
25472 9 1.35231 3.05466 18.7052 8.44706 8.45509 60.7471 
22959 9 6.26323 5.49222 15.7618 -37.4634 -1.69914 -2.40915 
22651 7 5.94991 1.13956 16.0376 4.59088 0.924938 5.04884 
22687 7 4.65197 -0.984037 18.383 0.92002 8.69766 -2.04667 
25236 7 -0.134007 1.56763 18.3784 2.62007 1.53822 -6.86652 
22650 7 6.42706 -0.219291 15.6212 3.08133 3.50383 -4.02234 
22648 6 5.03374 -0.282209 18.9829 -36.8569 -14.8225 -6.0429 
25227 3 2.15399 -1.29429 19.0613 -21.0365 -31.1559 -3.55387 
22717 6 5.28752 4.56116 18.8755 -1.42468 -15.5604 11.0945 
22760 7 5.89052 4.97742 18.2516 1.09135 8.4319 -3.33105 
22919 9 7.6639 2.59463 18.7282 -3.16655 4.89675 10.1847 
20022 6 13.5355 1.07063 17.4623 -15.7793 0.220248 -16.9384 
20101 7 8.4319 1.2745 17.0412 -1.03511 -0.259769 -7.27367 
22931 9 9.66265 -0.627959 15.7212 -1.14376 8.40147 -99.7422 
22643 5 10.3472 2.57234 12.1955 -2.67982 -4.22196 -8.32782 
20083 1 12.0539 4.57824 12.2941 21.9445 13.1097 24.0221 
22642 5 7.78438 2.32799 12.6693 -1.38249 -7.65458 -18.7119 
22572 5 10.3915 -1.19034 12.4814 -3.96029 -7.73472 -10.8018 
22647 5 8.01803 -1.15376 13.3887 5.74035 -14.1743 -18.3812 
20029 1 12.4935 0.818447 12.5759 0.620067 8.37822 -13.1512 
20095 5 13.8672 2.81253 13.0198 -3.3463 -11.0149 -11.3022 
22637 2 9.23854 2.21284 13.1776 48.0214 -54.1158 66.043 
22565 2 9.47766 -0.798971 13.6553 33.2091 65.6771 50.8217 
22641 4 9.6135 0.790931 13.697 -30.8431 -21.9888 -37.5937 
22640 4 9.10375 3.21619 14.2882 -9.81852 -25.8736 -15.8202 
20060 6 12.2694 0.834802 14.974 -15.2373 -8.11705 -0.128062 
20025 7 11.3296 0.645411 15.1962 8.51026 3.64171 -4.80608 
22638 8 8.6471 4.50209 15.4142 -37.3532 -23.8399 -74.2781 
20024 7 12.647 0.956099 15.9427 2.69896 2.32487 21.4942 
22688 6 9.34293 4.18386 17.1472 -14.6981 -3.57051 -11.5235 
20130 6 9.20712 1.02107 16.5811 -27.4606 -2.55697 -7.64534 
20016 5 13.8732 -1.10957 13.0216 -2.34193 -14.8076 -22.5701 
20100 7 9.06537 1.47584 15.714 -0.105201 7.32841 12.1489 
22967 7 9.62079 3.10636 17.3226 -2.67515 6.65575 -19.0562 
22571 3 9.89981 -1.31468 15.0568 -26.4693 -24.1298 -9.57308 
20064 7 13.6812 0.127252 17.733 -0.833239 9.25075 -1.31858 
22918 9 8.7728 -0.562988 18.4099 7.38701 7.30887 35.6439 
20096 6 10.9925 0.783279 18.6817 -29.8076 -12.7308 1.87554 
20135 7 11.7786 1.22042 18.4584 -5.4865 1.55773 -8.04529 
22955 7 8.73952 4.36016 18.0364 0.903397 5.51015 -34.6062 
20134 7 10.5143 0.656598 17.8028 6.90369 1.48778 7.98384 
20366 9 13.9472 2.11264 18.7963 5.61337 6.41273 -31.8429 
20131 6 11.4486 4.35137 19.0077 -22.4599 -14.2093 2.17471 
20098 7 11.1707 4.62936 18.1516 -1.26201 2.75475 -7.26836 
20379 9 14.3942 1.90158 15.356 9.72949 11.5776 23.3013 
20063 7 14.3988 1.27591 17.0683 0.553492 1.12244 0.714072 
20367 9 14.4263 5.05752 18.6639 4.10478 5.52065 11.9683 
20051 3 14.4435 -1.63959 18.7601 -20.7423 -48.2729 21.3314 
20099 7 12.2845 4.86673 19.0307 -0.410024 5.20541 -5.50274 
22608 3 8.52237 -1.32693 19.0144 -13.8789 -21.8386 17.6756 
15106 6 26.3509 23.0743 16.9576 -19.7472 1.11487 25.092 
20378 9 15.4007 0.0444891 14.8487 3.27272 42.1075 16.6988 
20012 2 15.2359 -1.61828 13.5115 11.4136 -102.784 52.4195 
17469 5 19.9364 -1.30131 13.4326 -8.54538 -12.8611 -12.4023 
20017 5 16.2815 -1.21496 12.5395 0.136132 -2.3888 -20.5738 
20020 5 16.2894 2.4578 12.6312 -2.03654 -4.70776 -7.17326 
17477 1 18.4308 4.50707 12.7514 33.493 24.758 60.1193 
17458 1 18.218 0.637135 12.871 34.4597 22.7917 16.305 
17464 5 19.9587 2.61017 13.0923 5.21136 -11.8284 -13.6114 
20014 3 15.3481 -0.927596 14.9324 -25.5476 -19.4412 18.2349 
20013 2 15.2355 2.86552 13.6686 27.2599 -6.81376 57.5428 
20089 4 15.4847 4.41259 13.8828 -17.1199 13.9007 -19.8989 
17460 2 21.2934 2.30374 13.8302 52.1837 48.1184 94.7308 
17386 2 21.2555 -0.760946 14.0881 52.2151 169.591 40.3184 
20019 3 15.268 1.92759 14.951 -17.4848 0.299306 28.7563 
17466 6 17.9788 0.825232 15.4576 -30.6583 -7.30179 17.2692 
17494 7 17.9472 1.69617 15.9533 8.07682 10.9643 -3.38372 
17493 7 18.5322 0.244629 16.038 11.113 -1.82894 -0.439642 
17471 6 18.7598 3.13142 16.6278 -35.2983 -55.9815 4.47798 
17510 7 19.6036 3.05984 16.1601 4.17435 2.31477 -5.31346 
17509 7 18.9151 2.9793 17.591 -8.94451 -0.0121911 -6.70845 
17463 4 21.2166 0.803669 14.1626 -8.78366 1.46659 -25.201 
17508 6 17.9948 5.14912 15.2503 -8.45108 -21.2647 30.8706 
17473 7 18.4253 4.76808 16.1096 2.05402 14.3334 5.85484 
14959 7 19.8686 -1.05937 17.7659 -0.146513 3.3698 4.09441 
14960 7 20.1385 0.438663 18.1612 -0.61458 -3.88402 10.481 
17391 3 21.526 -1.4138 15.4519 -21.7592 -32.5383 -1.69069 
17825 9 20.9549 -0.971997 16.1233 -2.14815 5.6377 -31.1846 
17462 3 21.4941 3.06627 15.2108 -26.9777 -28.8883 31.6471 
14918 6 20.1244 -0.186675 17.3951 -1.48877 -10.9642 -14.4675 
17826 9 21.2747 4.01477 15.0954 -3.1504 59.9346 10.1764 
17544 6 16.6896 4.09361 18.5878 -9.70823 -4.67152 -1.91998 
17582 7 17.3381 3.81009 17.9308 1.00108 1.42207 -1.39515 
17456 7 15.8158 -0.414632 18.605 5.0272 0.146237 -2.75464 
17457 7 16.3748 1.07889 18.4763 5.67713 8.8831 -2.55974 
17503 6 16.6529 0.123442 18.6525 -18.6264 6.65276 12.7316 
17472 7 17.0329 4.87491 15.3282 12.104 2.912 -1.50274 
17583 7 15.9318 3.38325 18.4789 24.7969 16.0686 5.89367 