ITEM: TIMESTEP
100000
ITEM: NUMBER OF ATOMS
25520
ITEM: BOX BOUNDS pp pp ff
-3.8959205201285124e-01 6.0088135642019459e+01
-1.9452389155355383e+00 5.9115524189537531e+01
-1.2206056431032383e+01 1.1390111600702880e+02
ITEM: ATOMS id type x y z v_stressx v_stressy v_stressz 
25292 7 5.89857 3.03966 7.5916 -2.49084 -8.54082 -6.20031 
25293 7 5.98077 1.53035 7.7064 -1.92295 -5.92793 -1.90555 
25252 6 5.35811 2.25094 7.51796 -6.3209 -3.21848 0.241499 
25287 5 0.61597 0.755495 10.7564 7.92529 -1.36048 2.7364 
25283 5 2.94291 4.2301 9.842 11.2138 6.62585 -12.7785 
25281 4 1.3887 2.44216 9.07367 -13.1832 1.97166 -17.0105 
25280 4 1.07853 5.00258 8.46007 -12.6698 -8.36054 -6.40631 
25277 2 1.45655 3.94107 9.49571 50.2366 39.3213 78.0861 
25215 5 2.99957 0.588718 9.72621 -14.4939 -10.002 -11.9191 
25209 2 1.59287 0.935181 9.44522 6.5825 -56.4554 74.1021 
25188 1 4.8243 2.58953 9.97468 5.09268 0.706637 14.5784 
25214 3 0.796635 0.0137284 8.44439 -1.54318 -4.11406 2.10307 
25282 5 0.520916 4.37471 10.6565 -15.0337 -14.7489 -18.2698 
25458 9 1.40812 -0.435335 7.83607 0.0171631 2.06761 1.7002 
25206 1 4.52732 -1.17961 10.115 34.6834 37.7989 20.5753 
22660 5 6.52822 0.875659 10.2203 -1.34451 -5.6412 -16.5649 
22735 5 6.623 4.87348 10.5536 2.40038 -8.95515 -12.7706 
25505 7 1.83983 5.65447 5.50835 -0.0557679 -0.160802 -0.295356 
22662 3 7.17647 4.29529 8.22411 -11.978 -23.0505 -19.4144 
22658 3 7.30314 0.346889 7.89736 -14.9 -15.1388 -11.4649 
22905 9 7.65252 -0.485879 7.46068 0.019595 -0.418123 -4.48849 
22906 9 7.50322 4.57024 7.35908 -2.78078 4.29686 9.78023 
20115 7 11.1372 2.292 6.49758 0.442523 -0.0127396 -1.15698 
22656 2 7.7059 0.365729 9.40584 22.3278 73.8003 63.293 
20116 7 12.1136 2.88755 7.40659 19.5926 6.64558 2.52903 
20078 6 11.1398 2.86581 7.23657 -15.8151 -11.5146 1.87989 
20106 3 13.741 4.72985 7.46261 -15.5836 -10.8853 42.6256 
22657 2 7.60419 5.1024 9.41016 53.0961 -16.1765 21.4579 
20036 3 13.619 0.47741 7.57109 -16.2968 -19.3736 17.0948 
20107 4 13.6664 2.6833 8.8298 -17.5934 -14.0207 -32.9334 
20104 2 13.8784 4.18168 8.97251 30.6068 35.9009 92.3288 
20031 2 13.7132 1.1448 8.96008 61.7439 163.705 12.338 
20108 5 12.6966 4.70757 9.81807 14.8233 12.0491 1.5833 
20112 5 12.4932 0.846951 9.91178 11.1213 -0.220348 7.04372 
22654 1 10.4859 2.78478 9.68506 11.0465 10.098 11.1534 
22661 5 9.03983 1.11007 9.56315 -7.46267 -6.46288 -16.3816 
22663 5 9.10858 4.7108 9.73761 4.46503 -12.7704 -15.5159 
22563 1 10.886 -1.13469 10.1589 -1.37988 -0.656745 -26.3295 
22659 4 7.7627 -1.12896 9.68153 -9.48022 -34.8626 -35.8527 
22629 6 11.3751 -1.065 7.76545 -16.6569 5.10495 2.62994 
22669 7 11.9249 -0.207968 7.44815 1.27654 5.19411 -1.29118 
20352 9 13.8605 1.22514 6.87465 0.680841 12.4966 14.6517 
20189 7 14.2777 3.18994 6.51456 0.260673 13.4846 8.35227 
20353 9 14.543 5.23857 7.22704 7.72943 13.1732 16.755 
20148 6 14.5671 2.45013 5.87332 0.145235 0.0588924 0.0988869 
22740 7 11.2703 5.5881 6.8279 3.27353 1.47179 -1.16794 
22738 7 8.76742 5.41578 5.90114 -0.695477 0.688965 -1.3761 
22701 6 7.85394 5.37142 5.69312 0.509239 -0.287039 7.99353 
22739 7 7.886 4.86164 4.87022 -0.0113237 0.0202499 0.00813534 
22670 7 11.9327 -1.89861 7.72342 1.01747 1.64097 -5.28817 
20188 7 15.4435 2.20345 6.22553 0.811956 -0.141896 0.0668617 
20037 5 15.0057 0.565552 9.66218 -0.956898 -6.97241 -13.3245 
20118 7 17.8719 2.63796 7.70159 5.65287 -0.348623 -3.00784 
20117 7 17.6995 1.17882 7.44002 3.01114 2.53761 -4.78982 
17799 9 19.455 -0.241526 7.33338 0.284411 6.59737 17.8428 
20077 6 17.1284 2.01775 7.60787 -23.2174 2.45094 27.1623 
17484 3 19.536 4.02271 8.03155 -4.15034 -2.50512 -2.10903 
20109 5 15.1822 4.68195 9.53593 -5.73431 -7.1871 -17.46 
17480 3 19.3808 0.510653 7.95906 -16.3252 -31.9579 11.1369 
17478 2 19.7385 0.13463 9.405 32.8057 34.323 49.3914 
17479 2 19.7269 4.90401 9.32133 45.9894 112.501 58.2637 
17485 5 21.0972 4.45706 9.83859 4.91975 -15.9516 -16.7815 
17483 5 21.125 0.57616 9.92672 5.11884 -9.88814 -13.5181 
17482 5 18.7273 0.612358 10.4453 0.959608 -3.53922 -7.32038 
17560 5 18.5746 4.39351 10.2378 -0.980551 1.65101 -12.0755 
20011 1 16.7883 2.43064 10.1919 49.8414 45.6724 45.2558 
20028 1 16.5417 -1.33752 10.1131 23.523 16.9843 10.2692 
17481 4 19.613 -1.37684 9.30614 -12.3644 -19.5101 -37.8169 
17800 9 20.2785 3.41394 7.96437 0.284759 -2.90662 -5.54489 
20002 6 16.2002 -1.21507 7.53432 -10.3962 -7.47791 13.5261 
20044 7 15.5857 -0.449442 7.68688 4.31234 8.54625 -2.93819 
20043 7 16.3516 -1.12082 6.60323 0.279815 0.198412 -0.847918 
17377 6 19.8786 -1.6773 6.3322 0.249563 -0.138303 -0.00804766 
17415 7 20.5742 -1.92657 6.98281 2.8212 2.47464 1.9891 
14864 7 23.6314 3.83266 7.75133 5.5883 -4.71022 -1.5154 
14825 6 23.2988 2.969 7.82153 -9.27759 -3.7722 1.52616 
14863 7 24.1611 2.53617 7.90018 3.87242 -1.35035 -0.641388 
17476 1 22.5994 2.5974 10.2549 -65.795 -40.9405 48.2233 
14928 3 25.5679 4.59148 8.20809 -31.1557 -49.8771 -46.5978 
15246 9 24.7065 0.00657495 8.04332 7.94113 10.7742 20.0789 
14856 3 25.5405 0.383335 8.16649 -12.5432 -14.7693 10.6823 
14929 4 25.6618 2.47021 9.27814 -17.4759 -35.1149 -33.0966 
14851 2 25.7726 0.935136 9.6021 19.4928 -189.937 73.6712 
14926 2 25.8313 3.99121 9.61155 27.1329 145.603 87.3212 
14857 5 27.172 0.513951 10.0212 -9.58615 -11.7807 -20.425 
14931 5 27.2703 4.30837 10.1061 -28.149 -11.4064 -17.6292 
14832 1 28.9014 2.41808 10.4207 15.0136 12.4512 48.9679 
14930 5 24.8007 4.37565 10.6576 12.7769 -4.50997 -12.8612 
14934 5 24.7275 0.511689 10.6576 4.7023 -3.72772 -0.235616 
17384 1 22.8636 -1.16741 10.5973 -0.49804 3.69776 8.03027 
14848 1 28.7231 -1.43222 10.2624 14.8987 18.8034 -0.59247 
14898 6 29.1786 2.45721 7.88738 -13.657 -15.1896 6.30849 
15247 9 26.3681 4.66526 7.72718 -1.61937 -1.09422 -15.3047 
14826 6 28.1456 -1.3901 7.71182 1.44231 -3.38275 26.4241 
14861 7 27.5228 -0.59177 7.7367 4.99039 5.84591 -2.2123 
14862 7 28.7608 -1.17174 6.9734 0.154473 0.0370721 -0.0661198 
17565 7 23.8543 5.62398 7.62904 12.5227 3.70235 -1.66991 
17491 7 23.3409 -0.830267 7.25909 0.0932246 0.0712098 -0.454667 
12347 6 29.4782 5.3719 8.00631 -15.2573 -7.21658 4.24271 
14939 7 29.2544 3.33895 7.63004 0.445642 -0.931457 -1.21772 
17492 7 24.1978 -1.77871 8.08715 8.14652 2.43264 -6.19182 
17450 6 23.2929 -1.42611 8.02021 -21.4091 -6.86813 18.9591 
25291 7 5.22591 6.53661 7.32751 1.16293 1.63459 -3.15346 
25290 7 3.82687 6.55555 6.86919 -0.708799 1.64653 -4.41706 
25253 6 4.33607 6.71227 7.63615 -9.54102 -11.4953 1.96384 
25517 7 1.84279 7.29014 5.50902 -0.0270442 -0.0606524 -0.551343 
25313 6 1.21101 6.45671 5.78137 6.07769 -5.20106 30.1792 
25362 7 1.19888 10.608 6.31952 -0.0198258 -0.0195498 -0.022214 
25275 1 4.36027 6.50413 10.1833 2.40743 11.9948 10.2337 
25278 8 0.639374 6.49188 7.63496 52.8189 31.6026 9.03357 
22958 9 3.89074 10.3239 7.2783 -3.5073 1.488 0.257504 
22732 3 4.70032 10.3548 7.96195 2.51447 -12.5803 13.5746 
25359 5 0.701437 8.49354 11.0939 -9.88008 -10.1509 -16.8524 
25356 5 3.08021 12.146 10.2169 9.94129 0.0378172 -13.0118 
25355 5 0.535314 12.2845 10.6518 -2.40145 -5.34206 -7.83099 
25354 4 1.48185 10.2856 9.54639 -13.5455 14.0539 -27.0038 
25353 3 1.39194 12.6945 8.41831 -14.7283 -8.37107 4.7155 
25351 2 1.63225 11.8296 9.72046 40.3846 49.2395 66.6808 
25286 5 2.93236 8.28049 10.0288 -5.50869 -15.8694 -18.9007 
25285 4 0.892127 7.85648 8.74192 -20.6038 -18.3203 -4.41729 
25279 2 1.49492 8.71367 9.83417 15.367 97.9401 76.9847 
25259 1 4.86194 10.2149 10.3927 6.52218 9.01352 34.2804 
25327 6 1.60703 9.7444 6.34125 2.37448 1.44595 -0.820805 
25363 7 1.38635 9.50649 7.2315 0.462161 2.62986 1.46945 
22807 5 6.5607 12.2849 10.8694 -15.8141 -14.3327 -17.3059 
22730 5 6.65234 8.34528 10.5398 -4.68877 -14.7784 -13.4058 
22726 8 6.48614 10.4372 7.49213 -1.91601 17.6479 -26.0864 
22761 6 7.05704 10.8316 5.66761 1.8047 2.53573 6.84437 
22733 4 6.9844 11.7221 8.61372 -10.8338 -12.5722 -2.61732 
22728 4 7.23016 9.05362 8.29312 -12.8017 -20.197 -5.82749 
22953 7 7.91026 10.1976 5.3838 -0.0667405 0.0993074 -0.653304 
22965 7 7.33207 11.8331 5.45166 -0.0497069 0.141267 -0.277851 
22741 7 11.5 7.01103 7.05421 2.59591 -0.0391443 -1.54933 
22700 6 10.8104 6.36788 7.23855 -16.0262 -2.0258 18.3496 
22636 1 10.9188 6.69179 9.82281 4.37353 9.28745 12.4451 
22729 4 7.48133 6.61374 9.11192 -11.2319 -8.65399 -28.057 
22668 7 10.5831 8.59932 7.42923 1.88684 4.32275 -3.16874 
22725 2 7.70374 8.13304 9.39568 26.7242 31.2481 96.6748 
22727 2 7.53968 12.6129 9.75953 16.5274 132.135 79.9414 
22630 6 10.7174 9.56513 7.55044 -8.14961 0.791354 5.25796 
22667 7 11.6785 9.56 7.58776 1.2609 0.719546 -1.31552 
20110 3 13.3722 8.00482 7.87861 -10.8692 -1.07069 -3.64617 
20176 4 13.3404 12.979 8.33811 -6.55899 -6.93019 -4.21209 
20177 4 13.5478 10.5013 8.95979 -6.21648 -0.275405 -16.3784 
20173 2 13.7057 11.9908 9.40771 33.3051 -5.25889 76.81 
20105 2 13.7244 8.93675 9.12343 -2.41073 6.73926 85.9162 
20178 5 12.5598 12.2564 10.4158 -7.7374 -12.3132 -22.1953 
20183 5 12.8988 8.51128 10.3587 -3.60078 -11.0006 -7.7889 
22734 5 8.97942 12.4092 10.1072 -12.227 -12.279 -17.1131 
22723 1 10.5486 10.4168 9.97488 -3.13595 4.17078 9.40775 
22731 5 9.11607 8.33188 9.85191 -15.5326 -24.3339 -22.1971 
20354 9 13.8366 7.1662 8.02076 -1.2063 -12.3579 -25.5548 
17489 7 15.3685 7.53149 7.27379 -6.22543 -2.28491 -3.81496 
17490 7 16.4114 7.08597 6.51817 -0.225527 0.0331443 -0.311821 
17451 6 15.9423 6.78743 7.29642 -18.6444 -17.1035 17.7465 
17555 4 19.5148 6.40419 9.24816 -10.6375 2.5022 -17.9608 
20102 1 16.4765 6.46221 9.86905 10.859 0.244591 19.0528 
20179 5 15.0791 12.3713 9.86379 2.75401 3.76757 -11.7855 
20111 5 15.0953 8.51182 9.52882 -26.2211 -13.8709 -15.2024 
17802 9 19.4832 11.878 7.51898 -0.11113 -0.098767 0.150055 
17554 3 19.6317 8.68088 7.9737 -1.83012 -5.31169 6.2095 
17801 9 19.3812 9.57046 8.10065 0.598351 12.1563 6.32113 
17558 3 19.3121 11.5602 8.35726 -4.06283 -2.11854 -0.324893 
17552 2 19.7279 7.97853 9.40881 24.4251 56.9853 60.2636 
17553 2 19.7446 12.5897 9.5152 42.7737 43.5442 72.0095 
17559 5 21.2085 12.1329 9.83297 6.80117 -0.606198 -11.4693 
17557 5 21.1128 8.33065 9.93016 1.02066 -11.3097 -16.0225 
17556 5 18.49 8.44005 10.194 12.6321 -3.66787 -7.45723 
17631 5 18.754 12.2185 10.6826 2.14295 -5.44855 -5.43923 
20084 1 16.8199 10.2664 10.3615 -10.9916 -4.28773 -0.799171 
17566 7 22.7737 6.49197 7.09029 0.0942312 0.0181323 0.0501106 
17525 6 23.2369 6.30614 7.97014 -29.9262 -5.77762 17.6223 
15249 9 26.4199 12.3989 7.50271 0.839489 0.683259 0.252618 
14924 1 28.8784 6.30371 10.2599 25.3528 20.1525 4.95436 
17459 1 22.8153 6.36449 10.4136 -83.1189 -68.7647 42.2234 
17550 1 22.6813 10.1773 10.109 18.866 17.6202 9.13528 
15248 9 25.0074 7.30471 8.25379 6.7308 8.84785 8.76725 
15002 3 25.5553 12.1132 7.86039 -4.73114 -8.722 8.97898 
14932 3 25.8534 7.69566 8.37038 -4.62273 -4.1723 1.29596 
15003 4 25.6929 10.0578 9.40228 -8.83711 -5.95252 -23.402 
15000 2 25.8234 11.5586 9.33827 28.1519 102.475 73.1349 
14927 2 25.9265 8.52626 9.67582 38.82 66.5873 73.2911 
15005 5 27.2586 12.0307 9.65026 -1.57282 -12.6327 -17.3216 
14933 5 27.3368 8.19806 10.2714 9.62942 -13.891 -17.479 
15004 5 24.794 12.1885 10.2281 1.74284 3.30904 -12.0208 
14907 1 29.0423 10.186 10.3202 23.7071 18.5304 22.5746 
15008 5 24.7476 8.17989 10.6591 15.9094 -0.0796138 -1.68137 
14899 6 29.4402 9.94521 7.67407 -3.21526 0.0764356 5.36346 
17637 7 24.0129 13.1402 7.48134 1.60848 0.645144 -0.201227 
25427 5 0.471403 16.2254 10.9577 6.2862 -3.69985 -5.1634 
25424 5 3.05777 19.7432 10.2643 -15.113 -6.20803 -9.97006 
25423 5 0.62854 19.9386 10.7649 4.10161 -4.22792 -10.7541 
25422 4 1.53223 17.8586 9.5283 -9.63242 7.17213 -14.4529 
25421 3 1.35286 20.1653 8.46116 -3.20681 -2.58696 -0.107039 
25419 2 1.68921 19.4163 9.80763 -41.6411 139.45 66.0816 
25358 5 3.0433 15.9649 10.3935 5.96722 -1.10007 -11.7121 
25352 2 1.62447 16.359 9.9389 56.7368 1.89147 36.6212 
25333 1 4.76049 17.9652 10.8964 -6.02779 13.0755 -28.0551 
25357 3 1.27516 15.4524 8.77037 -12.286 -17.3488 19.2081 
25460 9 1.6173 15.8283 7.87293 0.0973379 0.357909 4.24508 
25349 1 4.58657 14.1062 10.6957 6.9555 16.3159 -12.4171 
22803 5 6.49129 16.0975 10.8756 1.54795 -0.536558 0.102538 
22875 5 6.46084 20.071 11.1158 20.6055 8.28055 12.3035 
25459 9 1.48999 13.6574 8.56205 -0.966094 5.03032 -4.3567 
22801 3 7.03055 16.5942 8.55987 -2.16172 -6.90414 4.18798 
2179 7 -0.387305 20.8468 8.22815 14.3476 2.23679 -6.29607 
22805 3 7.32975 19.3599 8.91011 -8.30321 -8.43696 26.1927 
22908 9 7.54595 19.9046 8.12021 0.00767546 0.25507 6.53838 
22774 6 7.84223 14.1301 6.46407 2.08483 1.30393 1.97182 
22907 9 7.21638 17.5067 8.66763 -0.126985 20.2055 1.66199 
22800 2 7.69826 20.1918 10.1825 70.3918 57.4298 36.7287 
22810 7 9.52718 17.6319 7.67339 -2.0513 0.9284 -2.05044 
22775 6 10.3724 17.5576 8.1234 -17.9188 -8.89377 7.1394 
22811 7 11.0269 17.744 7.42304 6.05991 1.01718 -1.29709 
20249 3 13.6146 20.1923 8.5115 -17.2944 -15.8811 20.5103 
22799 2 7.50164 15.6895 9.76752 0.887158 21.1528 70.4718 
20181 4 13.1648 15.598 8.7498 -9.53021 -32.0503 -11.6309 
20250 4 13.59 17.8559 9.69511 -13.6036 6.67083 -27.523 
20247 2 13.6446 19.4223 9.89672 1.908 28.7945 67.8432 
20175 2 13.7411 16.3389 9.95052 43.7597 116.308 89.1099 
20255 5 12.7826 16.0392 11.1348 -2.57511 -11.2684 -16.5264 
20251 5 12.5994 19.887 10.8751 -0.630634 -0.176578 8.90747 
22797 1 10.5866 17.8329 10.6706 3.66019 -1.42218 26.9172 
22804 5 8.85928 16.0465 10.2629 -4.34637 -11.1767 -14.1289 
22806 5 9.15709 19.6726 10.6518 26.4818 -12.4266 -11.4409 
20209 6 12.874 15.0323 5.7533 0.486625 -0.349808 1.53945 
20174 8 12.7095 14.4625 7.54514 27.2684 10.931 -53.4661 
22802 4 7.35344 14.1712 9.46207 -20.8386 9.42806 -29.1172 
22707 1 10.7485 14.2517 10.2767 11.4212 10.348 -38.8083 
20180 3 10.8086 14.0423 7.95232 18.2651 -8.8661 4.77535 
20260 7 13.0324 18.8856 6.99744 0.12797 1.3246 1.25218 
20261 7 12.9162 17.3666 7.33817 -0.561035 10.5825 5.54781 
20401 7 13.4229 15.9899 5.62814 -0.162913 0.310581 -1.28534 
20406 9 10.0189 14.4108 7.4707 -1.29939 2.8434 -2.37 
20413 7 11.9327 15.1884 5.26927 -0.068636 -0.0249943 -0.439695 
20222 6 12.7014 18.0477 6.67459 -0.739097 0.728469 -0.971468 
22813 7 7.7456 15.0607 6.62462 -0.0739419 -0.0510535 0.0576588 
22812 7 7.44152 13.8113 7.30537 0.703917 1.42405 6.51094 
17861 7 18.0327 18.1656 5.18632 -0.0416772 -0.0257018 -0.195271 
17849 7 19.1146 19.332 5.5722 -0.053802 0.152811 -0.566051 
17657 6 18.7692 18.3451 5.88217 -4.80225 -2.66937 15.2276 
20252 5 14.9691 19.7344 10.5394 -8.35381 -13.5948 -18.378 
20182 5 15.2166 16.0409 10.213 -3.8352 -20.5755 -14.404 
17622 8 18.5634 18.0799 7.75046 32.0629 27.8097 -14.6844 
17854 9 15.9449 18.6012 8.0719 -0.32128 2.01077 -3.34738 
17628 3 16.7563 18.0742 8.25458 4.14209 -9.92561 9.73293 
17624 4 19.3217 16.6826 8.46567 -7.71331 -11.4573 -3.51025 
17629 4 18.9827 19.4332 8.85904 -13.5998 -12.1607 1.35839 
17621 2 19.6951 15.6526 9.54627 45.9932 94.1691 83.3469 
17623 2 19.5501 20.2671 10.0023 53.1672 24.9609 79.224 
17630 5 21.0316 19.7719 10.2793 12.5327 -2.5242 -16.0962 
17627 5 21.1919 15.89 9.96206 1.02535 -17.6171 -17.4172 
20155 1 16.8424 17.9752 10.6946 1.55498 10.4785 -28.6518 
17626 5 18.7672 15.8963 10.7355 -8.71999 -8.77578 -12.7017 
20171 1 16.7158 14.1373 10.3208 5.53006 6.82349 -9.54536 
17625 4 19.606 14.0957 9.12525 -6.02074 7.89522 -11.9407 
17564 7 21.4906 17.2833 7.58657 -0.593231 1.54369 -1.33475 
17703 5 18.6795 20.0258 11.2014 -15.236 -12.2315 -21.5075 
17709 7 19.905 20.6273 7.34679 2.88764 4.91566 4.22348 
20259 7 15.568 20.8847 8.4035 12.138 3.4895 -2.5482 
17526 6 22.4132 17.452 7.70597 -7.58877 -6.56869 18.4639 
17563 7 22.8092 16.6576 7.3521 0.26127 0.338602 -2.01128 
17619 1 22.5682 17.9268 10.3236 11.2242 12.8903 -21.0899 
15250 9 25.4259 16.554 7.3496 3.18785 4.15844 70.2381 
15006 3 25.6058 15.7572 7.92658 -17.0303 -12.2722 55.9113 
15072 4 25.3173 20.4252 8.40544 -12.8197 -7.75993 -2.33709 
15073 4 25.9599 17.9542 9.15621 -15.6133 6.17527 -33.9015 
15069 2 25.8295 19.4844 9.52152 46.4083 195.867 64.6819 
15075 5 27.2671 19.8707 9.91392 5.14844 -3.97255 -14.2523 
15001 2 25.8934 16.4473 9.39988 30.928 22.2701 32.5996 
15007 5 27.2951 15.9854 9.7832 -0.590594 -10.4786 -15.9778 
14980 1 29.1857 17.8209 10.1444 -12.9061 -20.7607 14.7834 
15074 5 24.8028 19.6389 10.6176 -5.8977 -5.38859 -19.3514 
15079 5 24.8396 16.1163 10.4638 8.72989 -3.42196 -0.612224 
12533 7 25.4571 18.3754 7.23091 -0.459017 4.35309 5.80949 
17532 1 22.9834 14.1035 10.1761 9.55201 11.8452 9.69813 
14998 1 28.6373 13.9834 10.0874 20.3097 24.699 13.9088 
12492 6 25.1645 17.9196 6.43544 -1.26511 -1.69704 -0.950586 
12532 7 24.2391 17.8074 6.45162 -0.070752 0.00744518 -0.225923 
17636 7 24.2982 14.6547 7.77674 3.10997 -4.71223 -4.64088 
17597 6 27.3956 19.7327 6.47718 -16.2451 -0.983953 0.776158 
17635 7 27.0344 19.9354 7.31032 6.28823 1.1451 -2.37018 
17596 6 23.5563 13.9987 7.66239 -11.3864 -1.5422 4.69314 
14974 6 28.7308 14.0837 7.53935 -5.65383 -10.8946 7.74006 
17634 7 26.9707 18.9124 6.11254 0.286041 0.568202 -0.144878 
15084 7 28.6931 18.2675 6.90767 0.587864 2.76283 -1.51019 
15012 7 28.1952 14.867 7.30744 1.75751 1.79846 -1.80813 
15044 6 29.2899 17.8272 7.55162 -18.3975 -15.1647 14.4226 
15011 7 29.5706 14.1102 6.99075 5.04245 0.867725 -0.334336 
25461 9 1.63963 21.1191 8.56579 -0.453127 9.02438 -6.02451 
25417 1 4.459 21.7465 10.9217 -16.7684 -19.5203 -17.6105 
24923 5 0.754769 27.5218 10.9484 6.07643 2.06401 -2.02791 
25425 3 1.35108 22.98 8.77836 -10.4543 -8.13815 18.568 
24927 5 0.559259 23.61 11.1153 15.8642 -1.60694 8.41218 
25426 5 3.10363 23.8017 10.4009 3.64471 -9.26509 -9.48381 
25420 2 1.64879 23.9265 10.0018 34.9757 97.6451 58.0605 
25401 1 4.97038 25.5329 10.7242 10.1182 4.65316 -15.8818 
24924 5 3.18735 27.1766 10.4054 -6.05909 -5.9832 -13.8925 
24922 4 1.38256 25.4386 9.75254 -16.3554 10.556 -16.8627 
24919 2 1.7823 26.9563 9.95451 0.770105 143.839 60.5092 
24921 3 1.55556 27.7248 8.56562 -3.23063 -0.879222 8.45702 
25462 9 1.60156 23.3783 7.96981 -0.0559186 0.1167 1.81332 
22871 5 6.64021 23.6959 10.9095 4.92612 -4.63945 -5.01257 
25451 9 2.36751 27.8615 8.13061 0.0523539 0.478883 1.5455 
22375 5 6.78156 27.3777 11.2762 2.14284 -3.67597 -2.93684 
20355 9 13.7553 21.1037 8.67011 -2.71215 21.2618 -1.16103 
22873 3 7.36095 26.8242 8.94079 -1.71239 -2.83898 22.3586 
22910 9 7.83453 27.1872 8.16884 0.01655 0.300083 5.2079 
22881 7 10.5673 22.2037 7.78641 0.17324 0.147277 -0.599237 
22880 7 12.0072 21.7432 8.22322 12.0576 4.38982 -4.70889 
22869 3 7.56442 24.0265 8.5961 -0.848563 -1.29237 0.705013 
22842 6 11.0399 21.8185 8.50693 -11.4559 -8.44924 3.15991 
22909 9 7.42422 24.9915 8.72358 -0.307173 9.4775 -0.580953 
22870 4 7.80675 21.6814 9.76784 -9.59204 13.1847 -14.5333 
22781 1 10.8959 21.6885 11.0129 -25.796 -19.4738 22.7041 
22868 2 7.76545 27.7412 10.1816 37.4649 97.6247 38.6935 
22867 2 7.78902 23.2324 9.92461 53.1991 190.022 73.4748 
22381 7 12.0152 26.341 8.4485 10.9967 9.16132 -1.46514 
20253 3 13.4682 23.4016 8.82795 -29.0321 -27.3173 7.64323 
22380 7 10.8121 26.2531 7.54966 0.073432 0.10562 0.100337 
22342 6 11.2091 25.8188 8.3988 -19.2275 -2.68796 29.9004 
20317 3 13.3219 27.8427 9.08682 -10.1304 -13.0925 -8.63495 
20248 2 13.7696 24.0294 10.2263 7.29015 2.95074 110.375 
20318 4 13.624 25.5447 10.0164 -28.8494 -19.0228 -44.0438 
20315 2 13.7788 27.0543 10.3348 50.5068 -14.4813 83.4915 
22865 1 10.6865 25.3992 10.9226 12.7236 11.3016 20.3027 
22872 5 9.17462 23.6871 10.462 5.42154 -15.5369 -14.0127 
22874 5 9.24947 27.6706 10.5948 6.93487 -9.65288 -9.86356 
20356 9 12.5954 23.6209 8.49206 10.2599 3.83422 -9.97254 
25431 7 14.1509 26.52 7.83751 1.0606 4.71662 6.73832 
20323 5 12.8525 23.6161 11.429 2.25859 -7.94019 0.384249 
25430 7 14.093 24.9955 7.86813 1.65678 4.6968 10.4316 
25395 6 14.4016 25.7329 7.27378 -0.138056 0.0932133 -0.158963 
20258 7 15.2294 22.3163 8.12146 1.32819 0.108735 -1.47735 
20223 6 16.0015 21.7513 8.2238 -7.23965 -1.16678 9.30521 
20245 1 16.5342 21.695 10.8038 16.3317 20.4486 31.8916 
17698 4 19.4354 21.7483 9.56107 -12.0318 -3.72098 -29.3149 
20320 5 15.2214 27.4242 10.856 4.53256 -11.1605 -14.8419 
20254 5 15.1801 23.5949 10.561 -15.791 -11.3989 -20.7023 
20329 7 17.2434 26.6466 8.28058 3.99915 3.18167 -3.69729 
20328 7 16.0419 25.8023 7.61998 1.69807 -0.023793 -0.100907 
17803 9 18.6355 24.4714 8.19816 9.09794 9.18574 -0.743911 
20290 6 16.6573 25.8385 8.42977 -27.0196 -4.55559 8.79654 
17697 3 19.4666 23.9299 8.24968 -7.16356 -15.3595 7.7499 
17701 3 18.7572 27.5768 9.07536 -11.3398 -29.4389 -3.39656 
17695 2 19.6311 23.298 9.64847 1.46342 4.76268 80.886 
17696 2 19.6976 27.9701 10.2409 32.84 99.88 91.6548 
17700 5 20.9899 23.6351 10.1729 -17.4258 -7.62005 -19.7961 
17702 5 21.0953 27.3466 10.1236 7.96934 -13.452 -20.8218 
17699 5 18.7076 23.7838 10.7613 -3.35418 -4.20707 -3.02679 
20229 1 17.0048 25.6018 10.9426 19.5462 15.1086 2.84017 
17708 7 20.0702 22.1005 7.0657 -0.258622 1.38432 0.725584 
17670 6 20.1319 21.2549 6.64674 -0.723288 0.866051 -1.17658 
17707 7 20.7868 25.2363 7.6314 4.66585 4.90342 -0.0797853 
17706 7 21.1787 26.5559 8.43819 0.0883541 6.46102 6.78702 
17671 6 21.5933 25.7538 7.94146 -0.338168 -4.679 5.21324 
17804 9 18.1596 28.2261 8.79174 4.31616 -0.372258 -3.01829 
15302 9 22.12 22.0167 7.2663 -10.78 2.26874 -0.671653 
15082 7 28.9341 21.4367 6.98265 -0.140251 1.90057 -3.08571 
15309 7 26.1711 21.1856 5.56242 -0.0521471 0.352557 -0.580144 
15297 7 25.7773 22.9358 5.36905 0.0243667 0.421228 0.0397001 
15076 3 22.8653 21.7306 7.945 5.22812 -10.2243 6.72079 
15105 6 25.4296 21.9972 5.7434 2.53091 2.84032 8.72961 
15067 1 28.5009 21.8246 10.3102 6.71726 13.2854 20.0171 
17603 1 22.8719 21.8054 10.3091 41.9863 31.0319 64.6096 
15070 8 24.6898 21.8654 7.53391 8.51969 22.0258 -4.98609 
15157 7 24.761 24.7113 6.5409 0.081528 1.41083 -2.19869 
17693 1 22.4585 25.6458 10.3024 35.2446 46.6725 66.8333 
15118 6 24.3516 25.0692 5.80024 0.216699 -0.0154494 -0.0774119 
15156 7 23.4675 25.4068 6.08223 0.347679 0.0653195 -0.0169072 
12750 9 28.7793 27.0604 8.02173 -18.1801 -1.33148 -3.57407 
15145 3 25.8709 28.1424 8.32624 -24.909 -9.88762 23.688 
15077 4 25.2347 23.1977 8.50469 -14.6405 -21.8056 -11.7326 
15146 4 25.5466 25.6818 9.29943 -7.59141 18.0845 -15.7216 
15143 2 25.8227 27.2278 9.63665 33.1747 57.6726 42.6418 
15071 2 25.6377 24.1622 9.58877 41.745 137.123 69.3587 
15078 5 27.0823 23.775 9.8664 3.6282 -1.50341 -12.094 
15148 5 27.2019 27.5255 10.2775 11.5085 -13.3405 -15.8624 
15051 1 28.9278 25.6837 10.4438 0.647055 12.9946 47.5192 
15147 5 24.7278 27.7419 10.5663 3.87695 -2.00605 -7.90295 
12524 3 29.1596 26.0649 8.01414 -11.2056 -1.23752 9.13706 
15045 6 29.2043 21.7754 7.82857 -18.4009 -10.9553 5.64568 
15251 9 25.5134 27.6474 7.63837 -0.0948884 -0.314452 15.5494 
15151 5 24.6677 23.8201 10.7274 -4.69223 -7.9746 -15.4299 
25272 7 0.846893 4.39048 15.9884 6.32871 0.110534 5.5906 
25198 5 4.5419 2.55475 12.6561 -16.5786 -8.47623 -10.5697 
25195 5 4.3158 -1.09258 12.7632 -1.00475 -3.13803 3.91916 
25511 9 -0.0451815 0.687809 16.1317 -4.00927 4.3952 2.23043 
22635 1 6.05896 0.692999 12.8525 -36.0474 -11.8155 -9.93884 
25268 5 2.06322 2.89899 12.9931 -1.22703 -12.0613 -23.0086 
25258 1 0.250924 4.4912 12.7638 1.26096 -0.359123 1.69027 
25207 1 0.476342 0.786529 13.0733 7.70537 29.2448 17.1044 
25191 2 3.47612 3.03985 13.5769 21.44 61.8156 66.2962 
25263 4 3.57926 4.53329 13.9916 -23.3239 0.646874 -27.0806 
25197 4 3.26023 2.0922 14.7531 -15.7543 -34.2224 -15.1957 
25192 4 3.04502 -0.482259 14.848 -10.242 -10.9375 -3.9003 
25196 3 0.655329 0.836172 15.3356 17.5477 -17.8676 7.74425 
25190 8 2.50862 0.929698 15.7766 15.0505 20.1328 0.708113 
25240 6 2.73451 0.988605 17.6808 1.57602 0.583297 29.0587 
25519 7 3.36806 0.379791 18.2493 4.61989 2.73412 1.20498 
25507 7 2.98745 1.99266 18.1097 -1.6597 9.58251 1.4161 
22649 6 4.50892 4.56265 17.2506 -13.3369 -4.03526 10.6086 
25308 6 0.115094 4.24987 15.3182 -16.9685 -4.01717 10.0458 
25270 6 1.65005 4.44321 17.9016 -26.2328 -3.33742 -13.6653 
25310 7 1.94876 3.74845 18.4613 -2.96458 -0.100392 0.488279 
22655 1 6.37544 4.67075 12.8239 9.09421 20.9734 9.4396 
25194 5 1.89442 -1.62182 13.1754 -0.83933 -15.9419 -19.1102 
25189 2 3.31878 -1.5892 13.8009 46.1452 217.342 96.4428 
25309 7 0.786528 4.58717 18.2177 0.586772 -2.01804 -1.80607 
22683 6 6.04171 1.2184 15.3745 -10.2797 -9.42273 7.28585 
22650 7 6.54609 1.12183 16.2673 4.41952 2.24068 13.7866 
22684 7 3.60201 4.63037 17.556 9.30468 0.87234 -1.972 
22644 3 6.96202 4.62635 15.2586 12.5685 -15.3472 20.2597 
22651 7 5.22035 1.70546 15.5352 8.35206 3.19461 -4.1348 
22959 9 6.29392 4.75556 16.0318 -24.0887 2.92142 -3.75021 
22759 7 5.96336 4.67962 18.4763 5.86456 1.01489 -6.37836 
22687 7 6.0811 0.333691 19.0194 9.89501 -0.248112 4.3524 
25236 7 0.976064 0.726747 18.9001 5.26934 5.34843 -2.74603 
22685 7 4.42388 4.80688 16.2681 -2.48237 5.5257 15.1083 
25476 9 3.31678 28.5956 16.3451 0.449667 13.0487 50.6955 
20023 6 7.37296 0.858841 17.9322 -46.612 -2.34602 -15.4579 
20061 7 7.49479 1.5916 18.5522 -0.736294 1.04211 -2.24227 
20022 6 13.4749 -1.15173 17.0303 -24.2814 -13.9083 -17.1642 
20062 7 8.20709 0.770124 17.5134 -0.883146 -3.56157 -3.87232 
20101 7 10.9528 -0.0399154 17.5145 2.05926 1.6005 0.362152 
22931 9 9.72825 -0.797002 15.7283 -2.20495 1.09869 -93.1992 
22643 5 10.3472 2.57234 12.1955 -2.25007 -5.02021 -7.62182 
20083 1 12.0539 4.57824 12.2941 20.8731 11.8404 23.0529 
22642 5 7.78438 2.32799 12.6693 -0.423958 -5.84318 -19.8207 
22572 5 10.3915 -1.19034 12.4814 -4.5965 -7.77273 -13.5073 
22647 5 8.01803 -1.15376 13.3887 3.35308 -12.7474 -16.2697 
20029 1 12.4935 0.818447 12.5759 -3.95011 6.03326 -13.3278 
20095 5 13.8672 2.81253 13.0198 -2.40259 -11.0351 -11.2679 
22637 2 9.23854 2.21284 13.1776 42.8526 -104.886 66.7201 
22565 2 9.47766 -0.798971 13.6553 31.5247 61.674 29.1179 
22641 4 9.6135 0.790931 13.697 -21.2252 -24.9397 -24.3124 
22640 4 9.10375 3.21619 14.2882 -10.7481 -22.7064 -11.8483 
20060 6 12.4102 0.67163 15.1243 -21.8835 -14.068 -1.80387 
20025 7 12.9805 0.443484 15.8872 2.78354 4.54384 0.367412 
22638 8 8.81064 4.4534 15.4772 -7.12483 26.6792 6.86907 
20024 7 11.5295 0.537905 15.3833 -0.492673 2.4524 -4.71298 
22688 6 9.57873 4.30231 17.2153 -1.2249 6.498 14.1736 
20130 6 10.013 0.0286346 17.3778 -13.3433 -4.4908 17.6878 
20016 5 13.8732 -1.10957 13.0216 4.98002 -15.0875 -18.625 
20100 7 9.73376 -0.297829 18.2748 1.93681 5.83842 22.726 
22967 7 9.16379 3.44228 17.8208 1.39434 11.9872 -0.30772 
22571 3 9.94275 -1.39805 14.9789 -25.2182 -20.8771 -19.7952 
20064 7 13.9733 -1.00561 16.2213 9.66781 -10.8952 -7.94818 
20135 7 12.6464 -0.27632 18.6859 4.55405 2.3708 -10.5469 
20098 7 12.1426 4.3332 18.7586 1.26051 0.749173 -2.46658 
20379 9 14.3712 1.77673 15.2658 7.29631 11.3585 18.1586 
22955 7 9.75386 5.12445 17.8567 1.34328 7.68828 1.08256 
20063 7 14.0348 -1.84701 17.368 3.51362 1.12313 -14.17 
20378 9 15.4007 0.0444891 14.8487 0.694816 75.3809 27.0906 
20012 2 15.2359 -1.61828 13.5115 11.7223 -94.7631 73.2737 
17469 5 19.9364 -1.30131 13.4326 3.52494 -12.7018 -11.4854 
20017 5 16.2815 -1.21496 12.5395 12.6167 -1.21551 -0.647621 
20020 5 16.2894 2.4578 12.6312 -0.283471 -4.76026 -7.36593 
17477 1 18.4308 4.50707 12.7514 46.2224 39.5741 57.1177 
17458 1 18.218 0.637135 12.871 33.937 24.1374 17.0897 
17464 5 19.9587 2.61017 13.0923 -2.70957 -12.6242 -16.1983 
20014 3 15.3481 -0.927596 14.9324 -26.4088 -14.6138 29.2753 
20013 2 15.2355 2.86552 13.6686 23.0996 -23.8853 68.6336 
20089 4 15.4847 4.41259 13.8828 -9.50642 12.2949 -17.1519 
17460 2 21.2934 2.30374 13.8302 60.0135 159.672 84.12 
17386 2 21.2555 -0.760946 14.0881 57.5488 118.734 33.0766 
20019 3 15.2623 1.92269 14.9594 -9.39965 1.27765 18.4673 
17466 6 18.2654 0.189429 15.4779 -20.2896 -5.68941 28.2441 
17494 7 17.8387 -0.717829 15.5603 8.87495 15.685 -7.3075 
17493 7 18.5444 0.34359 16.4067 2.94576 0.909374 -0.650981 
17471 6 18.406 2.68093 17.7141 -31.6952 -22.6656 -26.393 
17510 7 19.3492 2.79789 17.9314 6.56594 -1.15201 -3.11653 
17509 7 18.0966 1.89968 18.1646 1.90243 -1.559 0.533795 
17463 4 21.2166 0.803669 14.1626 -15.2206 18.3924 -27.4511 
17472 7 19.6265 4.39914 15.3306 4.46791 10.365 -6.10606 
17508 6 18.6821 4.45643 15.3418 -21.5765 -15.2971 5.17794 
17473 7 18.3771 3.78865 15.9333 2.29068 1.24227 -2.6655 
14959 7 21.4612 1.07469 18.1174 -1.56451 4.27259 7.11281 
14960 7 21.421 1.50789 16.6255 -1.26467 15.9538 8.99683 
17391 3 21.5775 -1.43495 15.4802 -30.5695 -31.887 37.2639 
17825 9 21.3591 -0.76715 16.1748 -0.99625 9.23097 81.6192 
17462 3 21.2684 3.06097 15.1956 -26.9084 -31.4216 15.7782 
14918 6 21.7219 0.746595 17.2062 -8.00259 -9.15311 12.1688 
17583 7 17.5397 3.76259 18.5571 7.46091 3.4449 -1.63252 
17826 9 21.9211 3.71942 15.238 5.53189 13.1773 5.83013 
15278 9 27.8422 28.5979 16.2503 -1.44531 5.80544 4.29867 
12405 7 29.8273 13.3262 18.9355 2.60434 10.031 -7.66992 
17544 6 16.878 4.40202 19.0347 -7.85986 -17.0024 9.58158 
20365 9 15.3933 -1.90556 19.0003 -1.00061 -5.3561 -78.72 
25347 7 0.252401 9.67318 16.2966 5.61189 7.34759 -2.47496 
12370 7 29.0801 4.277 16.2281 0.879696 2.63129 -4.63459 
17499 3 20.8368 2.71999 19.2345 -19.1679 -21.4236 -61.4226 
25465 9 2.87427 28.4336 18.7167 5.09009 6.80349 -39.5697 
12293 7 29.4945 1.79174 15.785 15.238 10.282 -4.23984 
17392 5 22.3788 -1.113 13.0479 12.1071 0.169732 6.22452 
15272 9 28.1289 -1.7756 15.7801 12.9976 3.58892 46.2955 
14833 2 27.436 -1.7351 13.7653 10.5243 117.416 74.8785 
14837 5 26.0685 -1.25524 13.3193 -5.19351 -11.4597 -15.8265 
14835 3 27.8006 -1.11354 15.1581 -22.03 -29.1541 10.1534 
17465 5 22.4822 2.65522 12.8638 3.65927 1.73252 2.3237 
14838 5 28.4591 -1.17305 12.8109 -2.73567 -6.08659 -13.0219 
14840 5 28.4301 2.34442 12.9979 1.28533 -1.2899 5.77138 
14906 1 24.3647 4.44957 12.9572 45.1769 37.1319 -69.6976 
14849 1 24.5191 0.684911 13.2379 22.6308 16.876 -12.4093 
14917 5 26.0089 2.42981 13.448 4.46679 -17.4816 -10.5556 
14911 4 27.5781 4.44263 13.9748 -26.691 -11.976 -34.3786 
14834 2 27.3716 2.93216 13.999 46.5856 78.7621 85.0092 