ITEM: TIMESTEP
160000
ITEM: NUMBER OF ATOMS
25517
ITEM: BOX BOUNDS pp pp ff
-3.8959205201285124e-01 6.0088135642019459e+01
-1.9452389155355383e+00 5.9115524189537531e+01
-1.2206056431032383e+01 1.1390111600702880e+02
ITEM: ATOMS id type x y z v_stressx v_stressy v_stressz 
25292 7 5.89857 3.03966 7.5916 -2.44621 -8.5233 -6.35224 
25293 7 5.98077 1.53035 7.7064 -1.88519 -5.90962 -1.96409 
25252 6 5.35811 2.25094 7.51796 -6.35727 -3.23336 0.246166 
25287 5 0.61597 0.755495 10.7564 7.44836 -1.45378 5.20537 
25283 5 2.94291 4.2301 9.842 11.5202 6.70445 -12.7248 
25281 4 1.3887 2.44216 9.07367 -13.753 1.99202 -17.2066 
25280 4 1.07853 5.00258 8.46007 -12.9194 -8.43264 -6.62358 
25277 2 1.45655 3.94107 9.49571 51.555 42.1157 80.0146 
25215 5 2.99957 0.588718 9.72621 -14.4358 -10.0503 -12.0948 
25209 2 1.59287 0.935181 9.44522 7.29948 -55.7146 74.6599 
25188 1 4.8243 2.58953 9.97468 5.10382 1.51552 14.0618 
25214 3 0.796635 0.0137284 8.44439 -1.46148 -4.09099 1.86705 
25282 5 0.520916 4.37471 10.6565 -15.5341 -14.5311 -18.861 
25458 9 1.40812 -0.435335 7.83607 0.0197433 2.0823 1.70668 
25206 1 4.52732 -1.17961 10.115 34.6153 37.9441 20.5881 
22660 5 6.52822 0.875659 10.2203 -1.17949 -5.50705 -16.4782 
22735 5 6.623 4.87348 10.5536 2.19755 -9.47497 -14.575 
25505 7 1.83983 5.65447 5.50835 -0.0555117 -0.158819 -0.296131 
22662 3 7.17647 4.29529 8.22411 -12.2045 -23.0877 -17.3165 
22658 3 7.30314 0.346889 7.89736 -15.0085 -15.2148 -11.2755 
22905 9 7.65252 -0.485879 7.46068 0.0202627 -0.413761 -4.48761 
22906 9 7.50322 4.57024 7.35908 -2.73843 4.28069 9.4417 
20115 7 11.1372 2.292 6.49758 0.445629 -0.00890152 -1.16369 
22656 2 7.7059 0.365729 9.40584 22.4641 73.7898 62.3077 
20116 7 12.1136 2.88755 7.40659 19.6788 6.66565 2.32006 
20078 6 11.1398 2.86581 7.23657 -15.9018 -11.5657 2.20586 
20106 3 13.741 4.72985 7.46261 -15.7552 -11.0157 42.7537 
22657 2 7.60419 5.1024 9.41016 55.2509 -15.7161 19.3228 
20036 3 13.619 0.47741 7.57109 -16.5722 -19.4739 17.3268 
20107 4 13.6664 2.6833 8.8298 -18.0326 -14.1902 -32.9495 
20104 2 13.8784 4.18168 8.97251 31.797 36.2063 92.4344 
20031 2 13.7132 1.1448 8.96008 62.6342 164.044 12.6837 
20108 5 12.6966 4.70757 9.81807 14.8926 12.0279 1.41406 
20112 5 12.4932 0.846951 9.91178 11.1128 -0.2511 6.75816 
22654 1 10.4859 2.78478 9.68506 10.8498 10.1993 11.8726 
22661 5 9.03983 1.11007 9.56315 -7.53872 -6.4214 -16.4097 
22663 5 9.10858 4.7108 9.73761 4.25759 -12.9608 -15.1439 
22563 1 10.886 -1.13469 10.1589 0.588766 -0.728603 -0.69302 
22659 4 7.7627 -1.12896 9.68153 -9.45266 -34.7097 -35.0861 
22629 6 11.3751 -1.065 7.76545 -16.7382 5.00248 2.53611 
22669 7 11.9249 -0.207968 7.44815 1.29066 5.21414 -1.35037 
20352 9 13.8605 1.22514 6.87465 0.714418 12.514 14.5658 
20189 7 14.2777 3.18994 6.51456 0.273834 13.5045 8.3448 
20353 9 14.543 5.23857 7.22704 7.73405 13.2138 16.7571 
20148 6 14.5671 2.45013 5.87332 0.145049 0.058168 0.0974416 
22740 7 11.2703 5.5881 6.8279 3.29035 1.48295 -1.17046 
22738 7 8.76742 5.41578 5.90114 -0.696891 0.697938 -1.28471 
22701 6 7.85394 5.37142 5.69312 0.523604 -0.304942 7.59811 
22739 7 7.886 4.86164 4.87022 -0.0113673 0.0201541 0.00932528 
22670 7 11.9327 -1.89861 7.72342 1.02512 1.66588 -5.27916 
20188 7 15.4435 2.20345 6.22553 0.812367 -0.139652 0.0764802 
20037 5 15.0057 0.565552 9.66218 -1.08301 -6.97444 -13.0035 
20118 7 17.8719 2.63796 7.70159 5.65214 -0.359387 -2.98802 
20117 7 17.6995 1.17882 7.44002 3.01875 2.51603 -4.74491 
17799 9 19.455 -0.241526 7.33338 0.319638 6.58607 17.9564 
20077 6 17.1284 2.01775 7.60787 -23.1675 2.55709 27.0801 
17484 3 19.536 4.02271 8.03155 -4.18743 -2.55169 -2.25143 
20109 5 15.1822 4.68195 9.53593 -5.99169 -7.1777 -17.3547 
17480 3 19.3808 0.510653 7.95906 -16.285 -31.7229 11.5144 
17478 2 19.7385 0.13463 9.405 31.8747 34.4163 46.6237 
17479 2 19.7269 4.90401 9.32133 46.6905 113.245 60.5164 
17485 5 21.0972 4.45706 9.83859 4.85956 -16.0028 -16.6958 
17483 5 21.125 0.57616 9.92672 5.0639 -10.0416 -13.2949 
17482 5 18.7273 0.612358 10.4453 1.16559 -3.80751 -5.94716 
17560 5 18.5746 4.39351 10.2378 -0.843545 1.68812 -11.1381 
20011 1 16.7883 2.43064 10.1919 50.0372 45.9239 48.1385 
20028 1 16.5417 -1.33752 10.1131 23.9887 17.0604 9.68663 
17481 4 19.613 -1.37684 9.30614 -11.9671 -19.5002 -37.5414 
17800 9 20.2785 3.41394 7.96437 0.303211 -2.90297 -5.50772 
20002 6 16.2002 -1.21507 7.53432 -10.3942 -7.54456 13.7143 
20044 7 15.5857 -0.449442 7.68688 4.3418 8.57565 -2.9893 
20043 7 16.3516 -1.12082 6.60323 0.281176 0.20053 -0.84203 
17377 6 19.8786 -1.6773 6.3322 0.246883 -0.138676 -0.0137655 
17415 7 20.5742 -1.92657 6.98281 2.86031 2.49207 2.0971 
14864 7 23.6314 3.83266 7.75133 5.58441 -4.69325 -1.4276 
14825 6 23.2988 2.969 7.82153 -9.29356 -3.81005 1.29799 
14863 7 24.1611 2.53617 7.90018 3.87527 -1.32475 -0.541704 
17476 1 22.5994 2.5974 10.2549 -65.6692 -41.2742 58.8883 
14928 3 25.5679 4.59148 8.20809 -31.3608 -50.0454 -47.0193 
15246 9 24.7065 0.00657495 8.04332 7.97465 10.769 20.027 
14856 3 25.5405 0.383335 8.16649 -12.5805 -14.7518 10.6489 
14929 4 25.6618 2.47021 9.27814 -17.8625 -35.2472 -34.7372 
14851 2 25.7726 0.935136 9.6021 19.5509 -189.972 77.7479 
14926 2 25.8313 3.99121 9.61155 28.3842 146.001 90.3246 
14857 5 27.172 0.513951 10.0212 -9.52469 -11.8486 -21.3908 
14931 5 27.2703 4.30837 10.1061 -28.1164 -10.9876 -17.8193 
14832 1 28.9014 2.41808 10.4207 14.3314 12.708 31.0105 
14930 5 24.8007 4.37565 10.6576 12.8077 -4.50675 -12.3397 
14934 5 24.7275 0.511689 10.6576 4.89628 -3.81341 -0.478031 
17384 1 22.8636 -1.16741 10.5973 -0.860918 4.6858 -4.7236 
14848 1 28.7231 -1.43222 10.2624 14.7994 18.6818 4.25214 
14898 6 29.1786 2.45721 7.88738 -13.5943 -15.3228 6.31644 
15247 9 26.3681 4.66526 7.72718 -1.61504 -1.09163 -15.3066 
14826 6 28.1456 -1.3901 7.71182 1.43124 -3.46538 27.068 
14861 7 27.5228 -0.59177 7.7367 4.97851 5.84809 -2.33634 
14862 7 28.7608 -1.17174 6.9734 0.155415 0.038063 -0.070887 
17565 7 23.8543 5.62398 7.62904 12.4973 3.71983 -1.61243 
17491 7 23.3409 -0.830267 7.25909 0.096832 0.0704268 -0.466508 
12347 6 29.4782 5.3719 8.00631 -15.1929 -7.08707 4.4135 
14939 7 29.2544 3.33895 7.63004 0.440708 -0.933067 -1.21532 
17492 7 24.1978 -1.77871 8.08715 8.19392 2.4239 -6.32456 
17450 6 23.2929 -1.42611 8.02021 -21.5683 -6.86356 19.4307 
25291 7 5.22591 6.53661 7.32751 1.18022 1.66829 -3.13063 
25290 7 3.82687 6.55555 6.86919 -0.683736 1.67336 -4.35996 
25253 6 4.33607 6.71227 7.63615 -9.56341 -11.6658 1.81845 
25517 7 1.84279 7.29014 5.50902 -0.0271756 -0.0578142 -0.554231 
25313 6 1.21101 6.45671 5.78137 6.0922 -5.38642 30.4096 
25362 7 1.19888 10.608 6.31952 -0.0200096 -0.0182104 -0.0242528 
25275 1 4.36027 6.50413 10.1833 3.78742 12.7545 6.07942 
25278 8 0.639374 6.49188 7.63496 52.9359 32.1132 9.47229 
22958 9 3.89074 10.3239 7.2783 -3.49323 1.48882 0.227437 
22732 3 4.70032 10.3548 7.96195 2.45631 -12.6341 13.8006 
25359 5 0.701437 8.49354 11.0939 -10.1281 -10.1568 -16.8003 
25356 5 3.08021 12.146 10.2169 9.79589 -0.00714938 -13.1 
25355 5 0.535314 12.2845 10.6518 -2.60383 -5.56314 -7.55939 
25354 4 1.48185 10.2856 9.54639 -13.7638 13.9383 -26.7849 
25353 3 1.39194 12.6945 8.41831 -15.0633 -8.21668 4.9532 
25351 2 1.63225 11.8296 9.72046 40.5058 49.6114 66.3626 
25286 5 2.93236 8.28049 10.0288 -5.59679 -16.0266 -19.1322 
25285 4 0.892127 7.85648 8.74192 -20.8447 -18.538 -4.58739 
25279 2 1.49492 8.71367 9.83417 17.3315 98.707 78.8376 
25259 1 4.86194 10.2149 10.3927 8.16989 9.40007 62.4772 
25327 6 1.60703 9.7444 6.34125 2.38551 1.42197 -0.732055 
25363 7 1.38635 9.50649 7.2315 0.462786 2.65985 1.36637 
22807 5 6.5607 12.2849 10.8694 -15.3157 -14.3956 -17.3285 
22730 5 6.65234 8.34528 10.5398 -4.65869 -14.3627 -13.1392 
22726 8 6.48614 10.4372 7.49213 -1.70721 17.9532 -26.1344 
22761 6 7.05704 10.8316 5.66761 1.78073 2.52693 6.86428 
22733 4 6.9844 11.7221 8.61372 -10.8112 -12.7505 -2.71669 
12510 6 29.3067 21.9738 17.5926 -14.9749 -12.5829 -15.5289 
22728 4 7.23016 9.05362 8.29312 -12.8524 -20.2682 -5.61878 
22953 7 7.91026 10.1976 5.3838 -0.0665886 0.0996577 -0.652408 
22965 7 7.33207 11.8331 5.45166 -0.0490682 0.141323 -0.278004 
22741 7 11.5 7.01103 7.05421 2.61089 -0.0266034 -1.54403 
22700 6 10.8104 6.36788 7.23855 -16.1106 -2.13446 18.5136 
22636 1 10.9188 6.69179 9.82281 4.0297 9.06951 11.901 
22729 4 7.48133 6.61374 9.11192 -11.4036 -8.31318 -26.8432 
22668 7 10.5831 8.59932 7.42923 1.91478 4.36582 -3.20494 
22725 2 7.70374 8.13304 9.39568 27.5197 31.3066 97.3562 
22727 2 7.53968 12.6129 9.75953 16.5876 133.358 79.9559 
22630 6 10.7174 9.56513 7.55044 -8.19965 0.707725 5.42319 
22667 7 11.6785 9.56 7.58776 1.27827 0.732757 -1.35009 
20110 3 13.3722 8.00482 7.87861 -10.9488 -1.16872 -3.3835 
20176 4 13.3404 12.979 8.33811 -6.59706 -6.95464 -4.07955 
20177 4 13.5478 10.5013 8.95979 -6.17422 -0.259496 -15.8007 
20173 2 13.7057 11.9908 9.40771 32.9926 -5.53316 75.749 
20105 2 13.7244 8.93675 9.12343 -1.8358 6.9116 83.6485 
20178 5 12.5598 12.2564 10.4158 -7.66223 -12.479 -22.7495 
20183 5 12.8988 8.51128 10.3587 -3.44811 -11.061 -7.40227 
22734 5 8.97942 12.4092 10.1072 -12.266 -12.5996 -17.2697 
22723 1 10.5486 10.4168 9.97488 -2.97837 4.17767 9.6456 
22731 5 9.11607 8.33188 9.85191 -15.7674 -24.1505 -22.1754 
20354 9 13.8366 7.1662 8.02076 -1.13791 -12.254 -25.5923 
17489 7 15.3685 7.53149 7.27379 -6.22669 -2.25961 -3.82894 
17490 7 16.4114 7.08597 6.51817 -0.225958 0.033843 -0.312716 
17451 6 15.9423 6.78743 7.29642 -18.6108 -17.2869 17.7431 
17555 4 19.5148 6.40419 9.24816 -10.7901 2.38359 -18.7093 
20102 1 16.4765 6.46221 9.86905 10.9201 0.227622 19.3604 
20179 5 15.0791 12.3713 9.86379 2.79657 3.85412 -11.4552 
20111 5 15.0953 8.51182 9.52882 -26.3357 -13.9759 -14.6944 
17802 9 19.4832 11.878 7.51898 -0.106468 -0.0988575 0.163645 
17554 3 19.6317 8.68088 7.9737 -1.88201 -5.31741 6.13191 
17801 9 19.3812 9.57046 8.10065 0.649523 12.1742 6.37861 
17558 3 19.3121 11.5602 8.35726 -4.27668 -2.05948 -0.888188 
17552 2 19.7279 7.97853 9.40881 25.0579 57.5185 61.7173 
17553 2 19.7446 12.5897 9.5152 41.7207 42.7994 66.0533 
17559 5 21.2085 12.1329 9.83297 6.90704 -0.508717 -10.6706 
17557 5 21.1128 8.33065 9.93016 1.02422 -11.4648 -15.6944 
17556 5 18.49 8.44005 10.194 12.7967 -3.61932 -7.03902 
17631 5 18.754 12.2185 10.6826 1.91783 -5.52301 -0.52159 
20084 1 16.8199 10.2664 10.3615 -12.39 -5.43185 0.142229 
17566 7 22.7737 6.49197 7.09029 0.0935466 0.017758 0.050558 
17525 6 23.2369 6.30614 7.97014 -29.8369 -5.88782 17.1826 
15249 9 26.4199 12.3989 7.50271 0.843431 0.687198 0.255487 
14924 1 28.8784 6.30371 10.2599 25.545 21.7501 -10.8495 
17459 1 22.8153 6.36449 10.4136 -84.0251 -68.3124 23.1832 
17550 1 22.6813 10.1773 10.109 18.9166 17.5681 8.41499 
15248 9 25.0074 7.30471 8.25379 6.70741 8.8252 8.72634 
15002 3 25.5553 12.1132 7.86039 -4.76992 -8.79668 8.94051 
14932 3 25.8534 7.69566 8.37038 -4.64396 -4.14324 1.30596 
15003 4 25.6929 10.0578 9.40228 -8.90238 -5.79174 -23.483 
15000 2 25.8234 11.5586 9.33827 29.1112 102.938 74.6811 
14927 2 25.9265 8.52626 9.67582 38.9016 66.4526 73.1733 
15005 5 27.2586 12.0307 9.65026 -1.5987 -12.7318 -17.4318 
14933 5 27.3368 8.19806 10.2714 9.58083 -13.5517 -17.1565 
15004 5 24.794 12.1885 10.2281 1.36178 3.24679 -11.9494 
14907 1 29.0423 10.186 10.3202 23.5136 18.6384 22.5225 
15008 5 24.7476 8.17989 10.6591 15.6665 -0.302944 -1.71544 
14899 6 29.4402 9.94521 7.67407 -3.23013 0.0561196 5.37073 
17637 7 24.0129 13.1402 7.48134 1.60843 0.648077 -0.191044 
25427 5 0.471403 16.2254 10.9577 6.35389 -3.41222 -5.17017 
25424 5 3.05777 19.7432 10.2643 -14.9504 -6.35676 -9.45086 
25423 5 0.62854 19.9386 10.7649 4.2318 -4.44791 -10.1408 
25422 4 1.53223 17.8586 9.5283 -9.6387 7.16166 -14.2151 
25421 3 1.35286 20.1653 8.46116 -3.22962 -2.59573 -0.11014 
25419 2 1.68921 19.4163 9.80763 -41.5709 140.069 63.9303 
25358 5 3.0433 15.9649 10.3935 6.05369 -0.974696 -11.3519 
25352 2 1.62447 16.359 9.9389 56.4353 1.24031 35.1658 
25333 1 4.76049 17.9652 10.8964 -6.17896 12.997 -35.2376 
25357 3 1.27516 15.4524 8.77037 -12.3457 -17.5 18.84 
25460 9 1.6173 15.8283 7.87293 0.102208 0.362781 4.24608 
25349 1 4.58657 14.1062 10.6957 6.94418 16.3396 -10.0526 
22803 5 6.49129 16.0975 10.8756 1.64178 -0.183834 1.17228 
22875 5 6.46084 20.071 11.1158 20.2111 7.97146 14.8192 
25459 9 1.48999 13.6574 8.56205 -0.925186 5.13891 -4.35199 
22801 3 7.03055 16.5942 8.55987 -2.22916 -6.87837 4.12186 
2179 7 -0.387305 20.8468 8.22815 14.3914 2.25546 -6.4284 
22805 3 7.32975 19.3599 8.91011 -8.48469 -8.62802 25.7171 
22908 9 7.54595 19.9046 8.12021 0.00887593 0.258092 6.54726 
22774 6 7.84223 14.1301 6.46407 2.05572 1.30089 1.98955 
22907 9 7.21638 17.5067 8.66763 -0.0800002 20.2209 1.7597 
22800 2 7.69826 20.1918 10.1825 71.2142 58.1434 37.5162 
22810 7 9.52718 17.6319 7.67339 -2.04392 0.939802 -2.0125 
22775 6 10.3724 17.5576 8.1234 -17.9815 -8.96945 6.68163 
22811 7 11.0269 17.744 7.42304 6.0723 1.04195 -1.22264 
20249 3 13.6146 20.1923 8.5115 -17.3651 -15.8484 19.8941 
22799 2 7.50164 15.6895 9.76752 1.24387 21.1082 70.8493 
20181 4 13.1648 15.598 8.7498 -9.69211 -32.1625 -12.0115 
20250 4 13.59 17.8559 9.69511 -13.6958 6.68201 -27.5444 
20247 2 13.6446 19.4223 9.89672 1.95151 28.6235 67.177 
20175 2 13.7411 16.3389 9.95052 44.5684 117.137 88.6501 
20255 5 12.7826 16.0392 11.1348 -2.53572 -11.3881 -16.0404 
20251 5 12.5994 19.887 10.8751 -0.795604 -0.154565 11.2197 
22797 1 10.5866 17.8329 10.6706 3.45504 -1.53024 20.5347 
22804 5 8.85928 16.0465 10.2629 -4.50909 -11.0967 -14.2447 
22806 5 9.15709 19.6726 10.6518 26.4485 -12.4242 -11.3585 
20209 6 12.874 15.0323 5.7533 0.480187 -0.358841 1.53615 
20174 8 12.7095 14.4625 7.54514 27.3786 11.0477 -53.8542 
22802 4 7.35344 14.1712 9.46207 -20.8964 9.29133 -29.1679 
22707 1 10.7485 14.2517 10.2767 12.6237 10.4608 3.53832 
20180 3 10.8086 14.0423 7.95232 18.2563 -8.85983 5.0561 
20260 7 13.0324 18.8856 6.99744 0.131068 1.33017 1.26971 
20261 7 12.9162 17.3666 7.33817 -0.535394 10.6207 5.64052 
20401 7 13.4229 15.9899 5.62814 -0.162193 0.311567 -1.28647 
20406 9 10.0189 14.4108 7.4707 -1.28882 2.8405 -2.44393 
20413 7 11.9327 15.1884 5.26927 -0.0684775 -0.0248119 -0.439589 
20222 6 12.7014 18.0477 6.67459 -0.745233 0.714756 -0.978735 
22813 7 7.7456 15.0607 6.62462 -0.0727121 -0.0504271 0.0581862 
22812 7 7.44152 13.8113 7.30537 0.714402 1.41891 6.45742 
17861 7 18.0327 18.1656 5.18632 -0.0415739 -0.0258251 -0.195356 
17849 7 19.1146 19.332 5.5722 -0.0532193 0.15246 -0.565058 
17657 6 18.7692 18.3451 5.88217 -4.83318 -2.65639 15.1535 
20252 5 14.9691 19.7344 10.5394 -8.48693 -13.6278 -17.8307 
20182 5 15.2166 16.0409 10.213 -3.96894 -20.6901 -14.2576 
17622 8 18.5634 18.0799 7.75046 32.2651 27.9385 -14.0864 
17854 9 15.9449 18.6012 8.0719 -0.342889 2.01383 -3.30833 
17628 3 16.7563 18.0742 8.25458 4.15243 -9.98315 9.63563 
17624 4 19.3217 16.6826 8.46567 -7.78661 -11.5142 -3.61937 
17629 4 18.9827 19.4332 8.85904 -13.7343 -12.3317 1.08905 
17621 2 19.6951 15.6526 9.54627 46.1221 94.9257 81.5311 
17623 2 19.5501 20.2671 10.0023 53.8834 25.6012 76.8321 
17630 5 21.0316 19.7719 10.2793 12.4711 -2.4873 -15.5925 
17627 5 21.1919 15.89 9.96206 1.08699 -17.7916 -16.8036 
20155 1 16.8424 17.9752 10.6946 1.27645 10.7425 -41.1023 
17626 5 18.7672 15.8963 10.7355 -8.55578 -8.87754 -11.9818 
20171 1 16.7158 14.1373 10.3208 4.01246 5.29021 -29.2139 
17625 4 19.606 14.0957 9.12525 -6.0734 7.84996 -11.7572 
17564 7 21.4906 17.2833 7.58657 -0.589192 1.56695 -1.22249 
17703 5 18.6795 20.0258 11.2014 -15.2541 -12.1644 -21.4354 
17709 7 19.905 20.6273 7.34679 2.89703 4.94076 4.29148 
20259 7 15.568 20.8847 8.4035 12.1353 3.4929 -2.44817 
17526 6 22.4132 17.452 7.70597 -7.60483 -6.66078 18.0415 
17563 7 22.8092 16.6576 7.3521 0.258128 0.343857 -1.95267 
17619 1 22.5682 17.9268 10.3236 11.502 12.6807 -5.38188 
15250 9 25.4259 16.554 7.3496 3.21705 4.15866 70.3329 
15006 3 25.6058 15.7572 7.92658 -17.2607 -12.2025 55.6619 
15072 4 25.3173 20.4252 8.40544 -12.9429 -7.94666 -2.65904 
15073 4 25.9599 17.9542 9.15621 -15.7285 6.32366 -34.4561 
15069 2 25.8295 19.4844 9.52152 46.9563 195.732 65.8927 
15075 5 27.2671 19.8707 9.91392 4.95342 -4.08578 -14.2906 
15001 2 25.8934 16.4473 9.39988 31.4833 22.5096 32.7642 
15007 5 27.2951 15.9854 9.7832 -0.445527 -10.5478 -15.7557 
14980 1 29.1857 17.8209 10.1444 -13.3359 -20.9777 15.7289 
15074 5 24.8028 19.6389 10.6176 -5.83571 -5.04679 -19.2185 
15079 5 24.8396 16.1163 10.4638 8.52856 -3.6209 -0.442453 
12533 7 25.4571 18.3754 7.23091 -0.399948 4.46202 6.03605 
17532 1 22.9834 14.1035 10.1761 9.92697 12.3785 9.08494 
14998 1 28.6373 13.9834 10.0874 20.0092 24.7816 13.4342 
12492 6 25.1645 17.9196 6.43544 -1.26816 -1.71224 -0.942103 
12532 7 24.2391 17.8074 6.45162 -0.071582 0.0105006 -0.225099 
17636 7 24.2982 14.6547 7.77674 3.122 -4.71873 -4.6204 
17597 6 27.3956 19.7327 6.47718 -16.3346 -1.07364 0.788604 
17635 7 27.0344 19.9354 7.31032 6.31261 1.20414 -2.39375 
17596 6 23.5563 13.9987 7.66239 -11.3737 -1.55676 4.62174 
14974 6 28.7308 14.0837 7.53935 -5.69493 -10.8675 7.56475 
17634 7 26.9707 18.9124 6.11254 0.287998 0.569716 -0.146428 
15084 7 28.6931 18.2675 6.90767 0.590993 2.76952 -1.51947 
15012 7 28.1952 14.867 7.30744 1.77291 1.79768 -1.75566 
15044 6 29.2899 17.8272 7.55162 -18.3921 -15.3018 14.3222 
15011 7 29.5706 14.1102 6.99075 5.0456 0.873384 -0.292523 
25461 9 1.63963 21.1191 8.56579 -0.432229 9.02759 -6.01297 
25417 1 4.459 21.7465 10.9217 -17.2777 -19.9476 -21.1687 
24923 5 0.754769 27.5218 10.9484 6.1189 2.08256 -1.3752 
25425 3 1.35108 22.98 8.77836 -10.6561 -8.1356 18.3041 
24927 5 0.559259 23.61 11.1153 15.5429 -1.45883 8.23288 
25426 5 3.10363 23.8017 10.4009 3.5373 -9.27417 -9.58628 
25420 2 1.64879 23.9265 10.0018 36.0059 97.6935 58.8591 
25401 1 4.97038 25.5329 10.7242 12.1797 5.1977 4.57626 
24924 5 3.18735 27.1766 10.4054 -6.24879 -6.18748 -13.9538 
24922 4 1.38256 25.4386 9.75254 -16.5518 10.247 -17.1553 
24919 2 1.7823 26.9563 9.95451 1.35405 144.57 60.3379 
24921 3 1.55556 27.7248 8.56562 -3.24757 -0.920637 8.28051 
25462 9 1.60156 23.3783 7.96981 -0.0555469 0.116374 1.81464 
22871 5 6.64021 23.6959 10.9095 4.87663 -4.57738 -4.56519 
25451 9 2.36751 27.8615 8.13061 0.0516318 0.480659 1.55216 
22375 5 6.78156 27.3777 11.2762 2.07723 -4.22912 -5.35935 
20355 9 13.7553 21.1037 8.67011 -2.68268 21.2452 -0.97445 
22873 3 7.36095 26.8242 8.94079 -1.68373 -2.81162 22.4535 
22910 9 7.83453 27.1872 8.16884 0.0144814 0.298569 5.20176 
22881 7 10.5673 22.2037 7.78641 0.173545 0.148308 -0.594867 
22880 7 12.0072 21.7432 8.22322 12.0715 4.41108 -4.56324 
22869 3 7.56442 24.0265 8.5961 -0.848012 -1.28704 0.687244 
22842 6 11.0399 21.8185 8.50693 -11.5613 -8.58012 2.49112 
22909 9 7.42422 24.9915 8.72358 -0.311019 9.46488 -0.552687 
22870 4 7.80675 21.6814 9.76784 -9.84019 13.0656 -14.9168 
22781 1 10.8959 21.6885 11.0129 -25.356 -19.4402 28.6019 
22868 2 7.76545 27.7412 10.1816 37.7529 98.5384 41.0242 
22867 2 7.78902 23.2324 9.92461 53.9031 190.073 74.0322 
22381 7 12.0152 26.341 8.4485 11.0915 9.18943 -1.39416 
20253 3 13.4682 23.4016 8.82795 -29.4286 -27.6625 6.48646 
22380 7 10.8121 26.2531 7.54966 0.0740487 0.105737 0.0997851 
22342 6 11.2091 25.8188 8.3988 -19.3644 -2.694 29.8766 
20317 3 13.3219 27.8427 9.08682 -10.2954 -13.1597 -8.06527 
20248 2 13.7696 24.0294 10.2263 7.24098 3.682 109.907 
20318 4 13.624 25.5447 10.0164 -28.9837 -19.1912 -44.0083 
20315 2 13.7788 27.0543 10.3348 50.8677 -14.3912 84.0792 
22865 1 10.6865 25.3992 10.9226 12.9689 11.2528 27.7324 
22872 5 9.17462 23.6871 10.462 5.35081 -15.5775 -14.0598 
22874 5 9.24947 27.6706 10.5948 6.70741 -9.80556 -10.2709 
20356 9 12.5954 23.6209 8.49206 10.3058 3.8597 -9.83167 
25431 7 14.1509 26.52 7.83751 1.06336 4.73574 6.73668 
20323 5 12.8525 23.6161 11.429 2.34064 -7.7854 0.858562 
25430 7 14.093 24.9955 7.86813 1.68604 4.73067 10.4638 
25395 6 14.4016 25.7329 7.27378 -0.138744 0.0919575 -0.157681 
20258 7 15.2294 22.3163 8.12146 1.33271 0.11713 -1.42206 
20223 6 16.0015 21.7513 8.2238 -7.2473 -1.19802 9.14899 
20245 1 16.5342 21.695 10.8038 16.4404 20.4306 27.6983 
17698 4 19.4354 21.7483 9.56107 -12.1309 -3.64466 -28.9272 
20320 5 15.2214 27.4242 10.856 4.46749 -11.1326 -14.797 
20254 5 15.1801 23.5949 10.561 -15.7684 -11.4599 -20.3115 
20329 7 17.2434 26.6466 8.28058 4.00179 3.21103 -3.61948 
20328 7 16.0419 25.8023 7.61998 1.69691 -0.0180557 -0.0946469 
17803 9 18.6355 24.4714 8.19816 9.13082 9.19743 -0.676789 
20290 6 16.6573 25.8385 8.42977 -27.0039 -4.80483 8.37611 
17697 3 19.4666 23.9299 8.24968 -7.41882 -15.3054 7.64399 
17701 3 18.7572 27.5768 9.07536 -11.408 -29.4735 -3.70121 
17695 2 19.6311 23.298 9.64847 1.85839 5.09017 79.7672 
17696 2 19.6976 27.9701 10.2409 34.3432 100.183 93.2602 
17700 5 20.9899 23.6351 10.1729 -17.2657 -7.58129 -19.1158 
17702 5 21.0953 27.3466 10.1236 7.76594 -13.3589 -21.2917 
17699 5 18.7076 23.7838 10.7613 -3.276 -4.39989 -1.31599 
20229 1 17.0048 25.6018 10.9426 18.6407 15.0236 -15.512 
17708 7 20.0702 22.1005 7.0657 -0.246539 1.39546 0.759855 
17670 6 20.1319 21.2549 6.64674 -0.736183 0.853583 -1.24273 
17707 7 20.7868 25.2363 7.6314 4.68332 4.89957 -0.097058 
17706 7 21.1787 26.5559 8.43819 0.153913 6.45703 6.86731 
17671 6 21.5933 25.7538 7.94146 -0.41722 -4.64596 5.40415 
17804 9 18.1596 28.2261 8.79174 4.30582 -0.370841 -2.98906 
15302 9 22.12 22.0167 7.2663 -10.7612 2.2835 -0.657977 
15082 7 28.9341 21.4367 6.98265 -0.130202 1.9102 -3.10509 
15309 7 26.1711 21.1856 5.56242 -0.0516345 0.353309 -0.579278 
15297 7 25.7773 22.9358 5.36905 0.0248207 0.421502 0.0417142 
15076 3 22.8653 21.7306 7.945 5.20238 -10.2677 6.90633 
15105 6 25.4296 21.9972 5.7434 2.5141 2.8201 8.66271 
15067 1 28.5009 21.8246 10.3102 7.85724 14.5513 38.5732 
17603 1 22.8719 21.8054 10.3091 41.4624 30.7584 63.4521 
15070 8 24.6898 21.8654 7.53391 8.59499 22.0472 -5.99609 
15157 7 24.761 24.7113 6.5409 0.10119 1.41951 -2.15477 
17693 1 22.4585 25.6458 10.3024 35.0481 46.7393 65.1273 
15118 6 24.3516 25.0692 5.80024 0.215283 -0.016306 -0.0849922 
15156 7 23.4675 25.4068 6.08223 0.348457 0.0657825 -0.0138714 
12750 9 28.7793 27.0604 8.02173 -18.1531 -1.30802 -3.51841 
15145 3 25.8709 28.1424 8.32624 -24.8563 -10.0247 23.3088 
15077 4 25.2347 23.1977 8.50469 -14.7021 -21.7725 -11.5727 
15146 4 25.5466 25.6818 9.29943 -7.58683 17.9158 -15.4487 
15143 2 25.8227 27.2278 9.63665 32.8313 57.5761 41.4342 
15071 2 25.6377 24.1622 9.58877 41.8255 136.938 67.6134 
15078 5 27.0823 23.775 9.8664 3.61547 -1.46032 -12.1076 
15148 5 27.2019 27.5255 10.2775 11.461 -13.2697 -15.7174 
15051 1 28.9278 25.6837 10.4438 0.471529 13.0331 45.4351 
15147 5 24.7278 27.7419 10.5663 3.93783 -1.81641 -7.68716 
12524 3 29.1596 26.0649 8.01414 -11.2968 -1.29134 8.98895 
15045 6 29.2043 21.7754 7.82857 -18.5252 -11.0131 5.32975 
15251 9 25.5134 27.6474 7.63837 -0.0950715 -0.294646 15.5709 
15151 5 24.6677 23.8201 10.7274 -4.93081 -8.3401 -14.915 
25272 7 0.416387 4.50136 16.1722 5.85577 0.0170862 11.6045 
25198 5 4.5419 2.55475 12.6561 -16.3709 -10.0325 -10.6018 
25195 5 4.3158 -1.09258 12.7632 -1.39362 -3.0677 3.25148 
25511 9 -0.121728 0.99743 16.2846 -2.28647 5.02829 1.44278 
22635 1 6.05896 0.692999 12.8525 -2.19664 5.0549 -5.84113 
25268 5 2.06322 2.89899 12.9931 0.425679 -9.41021 -22.3814 
25258 1 0.250924 4.4912 12.7638 1.33527 0.310147 0.936232 
25207 1 0.476342 0.786529 13.0733 14.9026 42.6204 27.5587 
25191 2 3.47612 3.03985 13.5769 20.2129 14.9246 61.5653 
25263 4 3.57926 4.53329 13.9916 -29.4372 -5.43981 -34.787 
25197 4 3.26023 2.0922 14.7531 -11.0256 -28.5351 -17.245 
25192 4 3.04502 -0.482259 14.848 -6.2773 -7.73341 -1.8448 
25196 3 0.574793 1.03278 15.4725 14.3807 -15.6361 22.3195 
25190 8 2.42569 0.918488 15.7668 14.9479 21.4836 -36.6647 
25240 6 2.93376 1.11531 17.6101 -7.45982 -12.4817 4.00262 
25519 7 2.51776 0.477261 18.3152 -4.08618 -11.6287 -47.4876 
25507 7 3.03185 2.0164 18.1103 -0.238627 -2.60676 -6.86064 
22649 6 4.0225 4.03939 16.7669 -22.3308 14.9561 -21.1508 
25308 6 -0.0608628 4.40469 15.276 -28.6661 -12.202 7.20975 
25270 6 1.44404 4.68086 17.6395 -15.6591 1.20113 -9.60007 
25310 7 1.73959 5.25701 18.347 -1.08122 4.91489 0.848553 
22655 1 6.37544 4.67075 12.8239 -4.61672 4.71173 -6.41969 
25194 5 1.89442 -1.62182 13.1754 -0.703013 -12.7564 -17.8149 
25189 2 3.31878 -1.5892 13.8009 46.5634 215.632 93.0094 
25309 7 2.27146 4.21746 17.3305 21.8405 0.214546 -0.358748 
22683 6 6.42964 0.105537 15.2934 -21.2465 4.14728 9.71365 
22650 7 6.75648 0.754007 16.0915 5.31058 6.62021 15.2707 
22684 7 4.02702 3.23445 16.0996 2.88886 17.5079 15.6191 
22644 3 6.62086 4.43508 15.2162 21.5794 -12.5818 4.83966 
22651 7 6.35801 -0.787345 15.7782 3.97939 9.44505 -1.82885 
22759 7 4.90591 4.62917 18.5197 4.66494 2.05286 1.74411 
22959 9 5.93593 4.3803 15.933 -1.0828 4.18833 -2.5989 
22685 7 3.8172 4.73488 16.1571 -0.902592 -10.3594 8.12123 
22760 7 5.72069 3.29489 18.744 5.17287 9.18921 -2.70929 
20061 7 6.81521 0.944604 18.0063 0.144677 0.797432 0.536714 
22918 9 8.1149 -2.11497 19.3349 22.1657 18.9412 18.0665 
20023 6 7.23174 1.56859 17.414 -23.4111 -18.926 -22.9669 
20022 6 13.3287 2.44239 17.137 -10.6522 -8.33983 -7.46189 
20062 7 8.17292 1.32639 17.3382 7.41674 2.41514 -1.50668 
20101 7 10.5971 0.359639 17.4527 5.57706 0.686974 -0.00231999 
22931 9 9.7957 -0.727733 15.7484 3.61378 3.7142 78.6704 
22643 5 10.3472 2.57234 12.1955 -1.59581 -4.61275 -10.1046 
20083 1 12.0539 4.57824 12.2941 22.1555 13.4952 26.0822 
22642 5 7.78438 2.32799 12.6693 -2.21881 -7.8752 -20.6855 
22572 5 10.3915 -1.19034 12.4814 1.00813 -6.79731 -2.71058 
22647 5 8.01803 -1.15376 13.3887 10.861 -13.6381 -20.0118 
20029 1 12.4935 0.818447 12.5759 8.66603 17.638 -10.2874 
20095 5 13.8672 2.81253 13.0198 -4.13123 -10.8329 -14.2849 
22637 2 9.23854 2.21284 13.1776 46.9572 169.496 81.0787 
22565 2 9.47766 -0.798971 13.6553 43.9806 29.0072 50.6483 
22641 4 9.6135 0.790931 13.697 -20.9319 22.7694 -24.6307 
22640 4 9.10375 3.21619 14.2882 -9.72482 -22.9707 -17.6577 
20060 6 12.5969 0.694405 15.096 -12.0302 -11.6294 9.51575 
20025 7 13.5684 0.53635 15.074 4.14065 6.68329 -9.06552 
22638 8 8.51993 4.48046 15.2941 49.3663 29.7447 4.0511 
20024 7 12.5602 1.23789 15.9823 0.708596 10.0688 11.0944 
22688 6 8.98894 4.08247 17.1389 -5.32849 -13.0994 32.6737 
20130 6 9.63964 0.234276 17.3952 -10.2478 -11.9086 10.4569 
20016 5 13.8732 -1.10957 13.0216 2.72387 -14.4016 -21.1939 
20100 7 9.50024 -0.337798 18.1912 1.26021 10.4633 13.2347 
22967 7 8.27862 3.46051 17.6441 -1.00487 -3.68557 -15.1916 
22571 3 9.98075 -1.35026 15.0323 -20.8596 -23.8329 28.5608 
22955 7 9.06895 4.87486 17.8662 -2.54805 -3.64031 -17.7048 
20064 7 13.9166 2.31366 17.886 4.80967 1.44373 9.8305 
20063 7 13.9282 2.43654 16.3929 1.59754 1.08522 -2.98909 
20096 6 12.3165 0.463029 19.2626 -5.62523 -6.87802 -9.3409 
20098 7 12.0769 3.91163 18.5976 4.92739 2.56238 4.98728 
20134 7 12.9558 -0.318236 19.2346 6.56161 8.2648 1.26427 
20099 7 10.5881 3.99032 18.7076 -0.523337 1.93559 -2.34979 
20379 9 16.2036 1.89117 15.3059 16.6958 15.612 15.3575 
20378 9 15.4007 0.0444891 14.8487 2.06227 63.3532 27.767 
20012 2 15.2359 -1.61828 13.5115 15.7855 -57.1784 74.4577 
17469 5 19.9364 -1.30131 13.4326 -3.82081 -11.1742 -12.11 
20017 5 16.2815 -1.21496 12.5395 7.40581 -0.532647 -7.89913 
20020 5 16.2894 2.4578 12.6312 -3.43284 -5.18429 -8.05112 
17477 1 18.4308 4.50707 12.7514 42.238 36.1985 52.5431 
17458 1 18.218 0.637135 12.871 54.2271 40.7609 14.5064 
17464 5 19.9587 2.61017 13.0923 -5.4677 -11.5924 -15.4981 
20014 3 15.3481 -0.927596 14.9324 -18.325 -2.05959 23.9727 
20013 2 15.2355 2.86552 13.6686 24.256 -31.4291 66.132 
20089 4 15.4847 4.41259 13.8828 -12.2566 8.62488 -19.4795 
17460 2 21.2934 2.30374 13.8302 68.8099 117.292 98.1471 
17386 2 21.2555 -0.760946 14.0881 57.3884 125.36 37.6954 
20019 3 15.3061 2.12179 14.9963 -34.7802 -22.5997 8.45221 
17466 6 17.5856 0.692676 15.4238 -36.5467 -27.4326 18.8864 
17494 7 17.3871 -0.243978 15.626 7.76051 4.08104 -7.18075 
17493 7 18.0309 0.954917 16.2716 6.08052 6.75824 -0.464544 
17471 6 18.7081 2.48738 16.8951 -26.7534 -19.9215 -4.9486 
17510 7 19.458 2.79053 16.328 18.7481 -2.71987 0.763767 
17509 7 19.182 2.30301 17.6951 7.90631 -1.0864 -2.23463 
17463 4 21.2166 0.803669 14.1626 -12.9072 3.98267 -40.4598 
17508 6 18.6412 4.94094 15.2333 -15.1985 -8.07175 2.89457 
17473 7 18.5503 4.10102 15.7744 -0.635037 10.469 -2.05716 
14959 7 20.8223 1.19977 17.5892 -6.00442 10.7862 8.55023 
14960 7 21.181 1.06864 16.1969 -6.64625 12.83 12.193 
17391 3 21.603 -1.40567 15.438 -21.501 -31.5666 1.44951 
17825 9 21.1268 -0.961667 16.1514 -1.63653 2.80015 36.8628 
17462 3 21.2139 3.02123 15.2353 -20.4552 -29.234 13.8459 
14918 6 21.2609 0.585778 16.9993 3.27155 -32.657 -27.6039 
17583 7 17.5924 3.79141 18.0683 7.47366 4.86507 2.53169 
17826 9 21.5544 3.9046 15.1227 -6.8263 4.48807 -7.52802 
17544 6 17.07 4.1675 18.8349 -22.0184 -17.9461 36.4009 
2035 7 -0.435739 13.1709 7.81937 1.6983 1.04307 -2.03764 
17582 7 17.5395 5.00715 19.031 6.21381 7.67856 -6.73592 
17503 6 16.7492 0.271012 19.2962 -28.1303 -17.9789 -3.62027 
14904 7 22.654 5.20402 18.8332 15.3918 0.556023 -6.6755 
17813 9 21.4548 3.0843 19.2798 2.5457 10.2909 -5.94814 
15272 9 27.9748 -1.76773 15.8034 9.03893 -3.69579 88.2894 
12370 7 29.3009 5.59127 15.9914 6.08648 2.37909 -9.87506 
12752 9 29.594 3.88466 18.4915 -7.19037 1.97552 -6.80552 
17392 5 22.3788 -1.113 13.0479 12.9319 0.0840277 6.58694 
14833 2 27.436 -1.7351 13.7653 16.4979 157.252 72.9856 
14837 5 26.0685 -1.25524 13.3193 -2.80389 -13.5086 -16.6424 
14835 3 27.909 -1.10651 15.2023 -18.2298 -36.8815 37.2993 
17465 5 22.4822 2.65522 12.8638 -0.512663 1.62046 0.44415 
14838 5 28.4591 -1.17305 12.8109 -0.90085 -5.56842 -12.1952 
14840 5 28.4301 2.34442 12.9979 6.72623 -1.35972 8.83158 
14906 1 24.3647 4.44957 12.9572 43.6011 36.1354 -79.0365 
14849 1 24.5191 0.684911 13.2379 21.5333 19.4457 -12.6347 
14917 5 26.0089 2.42981 13.448 2.63691 -17.2458 -13.7717 
14911 4 27.5781 4.44263 13.9748 -25.4388 5.0535 -30.5086 
14834 2 27.3716 2.93216 13.999 43.6557 161.762 71.5351 