ITEM: TIMESTEP
280000
ITEM: NUMBER OF ATOMS
25517
ITEM: BOX BOUNDS pp pp ff
-3.8959205201285124e-01 6.0088135642019459e+01
-1.9452389155355383e+00 5.9115524189537531e+01
-1.2206056431032383e+01 1.1390111600702880e+02
ITEM: ATOMS id type x y z v_stressx v_stressy v_stressz 
25292 7 5.89857 3.03966 7.5916 -2.45769 -8.45175 -6.22986 
25293 7 5.98077 1.53035 7.7064 -1.89597 -5.86608 -1.89665 
25252 6 5.35811 2.25094 7.51796 -6.34367 -3.28155 0.21635 
25287 5 0.61597 0.755495 10.7564 7.54719 -1.57789 5.70475 
25283 5 2.94291 4.2301 9.842 11.038 6.45357 -12.7433 
25281 4 1.3887 2.44216 9.07367 -13.3813 1.77751 -16.5833 
25280 4 1.07853 5.00258 8.46007 -13.0572 -8.56779 -6.8192 
25277 2 1.45655 3.94107 9.49571 52.3867 38.8853 78.952 
25215 5 2.99957 0.588718 9.72621 -14.6067 -10.2257 -11.6224 
25209 2 1.59287 0.935181 9.44522 8.88828 -56.4279 73.071 
25188 1 4.8243 2.58953 9.97468 5.23595 1.54289 14.1993 
25214 3 0.796635 0.0137284 8.44439 -1.81477 -4.3967 2.18679 
25282 5 0.520916 4.37471 10.6565 -15.2087 -14.5397 -17.5559 
25458 9 1.40812 -0.435335 7.83607 0.0236142 2.07957 1.71216 
25206 1 4.52732 -1.17961 10.115 34.4976 37.7675 19.8392 
22660 5 6.52822 0.875659 10.2203 -1.37697 -5.64954 -15.3266 
22735 5 6.623 4.87348 10.5536 2.454 -9.39265 -15.0168 
25505 7 1.83983 5.65447 5.50835 -0.0558058 -0.160992 -0.295835 
22662 3 7.17647 4.29529 8.22411 -12.2135 -23.2289 -17.8646 
22658 3 7.30314 0.346889 7.89736 -15.0964 -15.308 -11.5532 
22905 9 7.65252 -0.485879 7.46068 0.025339 -0.412405 -4.47468 
22906 9 7.50322 4.57024 7.35908 -2.70728 4.34061 9.67518 
20115 7 11.1372 2.292 6.49758 0.449946 -0.00394422 -1.15784 
22656 2 7.7059 0.365729 9.40584 23.1525 74.0108 61.2716 
20116 7 12.1136 2.88755 7.40659 19.7263 6.73109 2.62775 
20078 6 11.1398 2.86581 7.23657 -16.028 -11.7249 1.81314 
20106 3 13.741 4.72985 7.46261 -15.9639 -11.0741 42.1256 
22657 2 7.60419 5.1024 9.41016 55.1094 -15.5608 21.5471 
20036 3 13.619 0.47741 7.57109 -16.6771 -19.6815 16.8807 
20107 4 13.6664 2.6833 8.8298 -18.197 -14.2089 -33.9309 
20104 2 13.8784 4.18168 8.97251 31.9972 36.711 93.5066 
20031 2 13.7132 1.1448 8.96008 63.1151 164.088 15.1813 
20108 5 12.6966 4.70757 9.81807 14.8486 11.7848 2.04697 
20112 5 12.4932 0.846951 9.91178 10.8612 -0.390147 6.18222 
22654 1 10.4859 2.78478 9.68506 11.1553 10.3708 11.0865 
22661 5 9.03983 1.11007 9.56315 -7.54349 -6.49992 -16.2021 
22663 5 9.10858 4.7108 9.73761 4.10689 -13.0107 -15.2378 
22563 1 10.886 -1.13469 10.1589 -0.39017 -0.501257 -12.5105 
22659 4 7.7627 -1.12896 9.68153 -9.74094 -34.7712 -34.4634 
22629 6 11.3751 -1.065 7.76545 -16.7833 4.96257 2.46507 
22669 7 11.9249 -0.207968 7.44815 1.30431 5.22815 -1.30102 
20352 9 13.8605 1.22514 6.87465 0.731289 12.5608 14.5965 
20189 7 14.2777 3.18994 6.51456 0.3084 13.5414 8.4058 
20353 9 14.543 5.23857 7.22704 7.78951 13.2156 16.8755 
20148 6 14.5671 2.45013 5.87332 0.143612 0.0561647 0.0962622 
22740 7 11.2703 5.5881 6.8279 3.29743 1.48491 -1.14638 
22738 7 8.76742 5.41578 5.90114 -0.678269 0.709963 -1.31232 
22701 6 7.85394 5.37142 5.69312 0.446208 -0.35678 7.74334 
22739 7 7.886 4.86164 4.87022 -0.0109428 0.0204365 0.00895305 
22670 7 11.9327 -1.89861 7.72342 1.05515 1.68245 -5.27319 
20188 7 15.4435 2.20345 6.22553 0.817339 -0.131892 0.0810756 
20037 5 15.0057 0.565552 9.66218 -1.14593 -6.98799 -13.2237 
20118 7 17.8719 2.63796 7.70159 5.68133 -0.305676 -2.9196 
20117 7 17.6995 1.17882 7.44002 3.044 2.56739 -4.73708 
17799 9 19.455 -0.241526 7.33338 0.358863 6.62732 17.9111 
20077 6 17.1284 2.01775 7.60787 -23.2723 2.25861 26.7783 
17484 3 19.536 4.02271 8.03155 -4.24676 -2.5622 -2.1624 
20109 5 15.1822 4.68195 9.53593 -5.87233 -7.43777 -16.878 
17480 3 19.3808 0.510653 7.95906 -16.6829 -32.0428 10.9542 
17478 2 19.7385 0.13463 9.405 33.4552 35.0099 50.2718 
17479 2 19.7269 4.90401 9.32133 47.1611 113.351 58.5127 
17485 5 21.0972 4.45706 9.83859 4.93371 -16.0111 -16.204 
17483 5 21.125 0.57616 9.92672 4.913 -9.98888 -13.4025 
17482 5 18.7273 0.612358 10.4453 1.14069 -3.57117 -5.66949 
17560 5 18.5746 4.39351 10.2378 -1.09855 1.60943 -11.0047 
20011 1 16.7883 2.43064 10.1919 50.4128 45.706 48.8649 
20028 1 16.5417 -1.33752 10.1131 23.7327 17.1783 10.4693 
17481 4 19.613 -1.37684 9.30614 -12.5987 -19.7266 -38.484 
17800 9 20.2785 3.41394 7.96437 0.321585 -2.88398 -5.50609 
20002 6 16.2002 -1.21507 7.53432 -10.4509 -7.66655 13.681 
20044 7 15.5857 -0.449442 7.68688 4.34484 8.64834 -2.87836 
20043 7 16.3516 -1.12082 6.60323 0.28496 0.203839 -0.85676 
17377 6 19.8786 -1.6773 6.3322 0.246745 -0.13969 -0.00675283 
17415 7 20.5742 -1.92657 6.98281 2.86371 2.48972 2.03489 
14864 7 23.6314 3.83266 7.75133 5.61043 -4.68224 -1.47498 
14825 6 23.2988 2.969 7.82153 -9.31792 -3.85644 1.42804 
14863 7 24.1611 2.53617 7.90018 3.8856 -1.3041 -0.607136 
17476 1 22.5994 2.5974 10.2549 -65.3278 -40.8799 59.4466 
14928 3 25.5679 4.59148 8.20809 -31.3999 -50.0034 -46.0621 
15246 9 24.7065 0.00657495 8.04332 7.99551 10.7808 20.0351 
14856 3 25.5405 0.383335 8.16649 -12.6581 -14.7863 10.7213 
14929 4 25.6618 2.47021 9.27814 -17.8886 -35.2873 -34.1334 
14851 2 25.7726 0.935136 9.6021 20.0562 -189.862 74.8494 
14926 2 25.8313 3.99121 9.61155 29.2846 146.494 89.9204 
14857 5 27.172 0.513951 10.0212 -9.71734 -11.7155 -20.4616 
14931 5 27.2703 4.30837 10.1061 -28.4452 -11.6487 -18.0596 
14832 1 28.9014 2.41808 10.4207 15.471 12.2327 59.7645 
14930 5 24.8007 4.37565 10.6576 12.475 -4.64598 -12.8846 
14934 5 24.7275 0.511689 10.6576 4.65145 -3.87596 -0.204734 
17384 1 22.8636 -1.16741 10.5973 -1.41075 4.38246 -15.467 
14848 1 28.7231 -1.43222 10.2624 15.3945 18.7393 8.75503 
14898 6 29.1786 2.45721 7.88738 -13.7903 -15.3494 6.15657 
15247 9 26.3681 4.66526 7.72718 -1.61457 -1.09235 -15.3214 
14826 6 28.1456 -1.3901 7.71182 1.15989 -3.60805 26.1747 
14861 7 27.5228 -0.59177 7.7367 5.0391 5.87853 -2.1551 
14862 7 28.7608 -1.17174 6.9734 0.155434 0.0389305 -0.0611092 
17565 7 23.8543 5.62398 7.62904 12.5578 3.75573 -1.62949 
17491 7 23.3409 -0.830267 7.25909 0.0965866 0.073012 -0.446678 
12347 6 29.4782 5.3719 8.00631 -15.3327 -7.26942 3.95321 
14939 7 29.2544 3.33895 7.63004 0.454901 -0.925791 -1.20752 
17492 7 24.1978 -1.77871 8.08715 8.17825 2.48303 -6.27531 
17450 6 23.2929 -1.42611 8.02021 -21.453 -6.95413 19.2747 
25291 7 5.22591 6.53661 7.32751 1.21806 1.6622 -3.0875 
25290 7 3.82687 6.55555 6.86919 -0.676889 1.66664 -4.29835 
25253 6 4.33607 6.71227 7.63615 -9.72102 -11.6164 1.7547 
25517 7 1.84279 7.29014 5.50902 -0.0255259 -0.0590751 -0.551039 
25313 6 1.21101 6.45671 5.78137 6.02429 -5.26355 30.2065 
25362 7 1.19888 10.608 6.31952 -0.0163913 -0.0132967 -0.0184233 
25275 1 4.36027 6.50413 10.1833 4.16954 13.0933 3.59846 
25278 8 0.639374 6.49188 7.63496 53.3006 31.8297 10.143 
22958 9 3.89074 10.3239 7.2783 -3.4765 1.51853 0.320576 
22732 3 4.70032 10.3548 7.96195 2.32856 -12.8001 13.3436 
25359 5 0.701437 8.49354 11.0939 -10.1014 -10.5196 -17.0174 
25356 5 3.08021 12.146 10.2169 9.87675 0.000574886 -12.5691 
25355 5 0.535314 12.2845 10.6518 -2.5909 -5.533 -7.69012 
25354 4 1.48185 10.2856 9.54639 -13.8518 13.6906 -26.541 
25353 3 1.39194 12.6945 8.41831 -15.3784 -8.67792 4.0838 
25351 2 1.63225 11.8296 9.72046 40.7886 50.0782 66.186 
25286 5 2.93236 8.28049 10.0288 -5.71504 -15.9898 -18.3525 
25285 4 0.892127 7.85648 8.74192 -20.9227 -18.5113 -4.80987 
25279 2 1.49492 8.71367 9.83417 16.9953 98.934 74.5971 
25259 1 4.86194 10.2149 10.3927 7.57253 9.38266 49.5529 
25327 6 1.60703 9.7444 6.34125 2.3232 1.37281 -0.924935 
25363 7 1.38635 9.50649 7.2315 0.511183 2.68321 1.55712 
22807 5 6.5607 12.2849 10.8694 -15.5247 -14.165 -16.5372 
22730 5 6.65234 8.34528 10.5398 -4.60215 -14.7187 -13.2192 
22726 8 6.48614 10.4372 7.49213 -1.51973 18.2035 -25.3666 
22761 6 7.05704 10.8316 5.66761 1.76567 2.49498 6.84664 
22733 4 6.9844 11.7221 8.61372 -10.9959 -12.8304 -2.87811 
15312 7 25.9269 23.7089 16.1541 3.65963 3.20041 -16.1459 
22728 4 7.23016 9.05362 8.29312 -12.9839 -20.4062 -5.8633 
22953 7 7.91026 10.1976 5.3838 -0.0660456 0.100568 -0.652618 
22965 7 7.33207 11.8331 5.45166 -0.0487996 0.142048 -0.277587 
22741 7 11.5 7.01103 7.05421 2.61434 -0.0242718 -1.509 
22700 6 10.8104 6.36788 7.23855 -16.2193 -2.15532 18.17 
22636 1 10.9188 6.69179 9.82281 5.13074 9.9277 11.2406 
22729 4 7.48133 6.61374 9.11192 -11.4004 -8.38393 -27.0354 
22668 7 10.5831 8.59932 7.42923 1.91656 4.38225 -3.11342 
22725 2 7.70374 8.13304 9.39568 28.0243 31.7055 96.4507 
22727 2 7.53968 12.6129 9.75953 17.4661 133.057 79.0107 
22630 6 10.7174 9.56513 7.55044 -8.20454 0.634944 5.17322 
22667 7 11.6785 9.56 7.58776 1.27019 0.751133 -1.27398 
20110 3 13.3722 8.00482 7.87861 -11.1461 -1.17954 -4.21822 
20176 4 13.3404 12.979 8.33811 -6.59763 -6.97008 -4.17415 
20177 4 13.5478 10.5013 8.95979 -6.33636 -0.392597 -16.6703 
20173 2 13.7057 11.9908 9.40771 34.0656 -3.61565 77.5816 
20105 2 13.7244 8.93675 9.12343 -1.15263 7.40954 87.7228 
20178 5 12.5598 12.2564 10.4158 -7.94252 -12.6686 -21.4738 
20183 5 12.8988 8.51128 10.3587 -3.59367 -10.945 -8.01268 
22734 5 8.97942 12.4092 10.1072 -12.4504 -12.4912 -17.0738 
22723 1 10.5486 10.4168 9.97488 -2.77835 4.45188 9.03307 
22731 5 9.11607 8.33188 9.85191 -15.8701 -24.3225 -21.8025 
20354 9 13.8366 7.1662 8.02076 -1.02303 -12.2837 -25.1868 
17489 7 15.3685 7.53149 7.27379 -6.18748 -2.26423 -3.70574 
17490 7 16.4114 7.08597 6.51817 -0.22483 0.0341242 -0.308304 
17451 6 15.9423 6.78743 7.29642 -18.8598 -17.2846 17.1495 
17555 4 19.5148 6.40419 9.24816 -10.9045 2.38917 -17.7173 
20102 1 16.4765 6.46221 9.86905 11.0953 0.499307 18.2253 
20179 5 15.0791 12.3713 9.86379 2.64426 3.55909 -11.4775 
20111 5 15.0953 8.51182 9.52882 -26.0245 -13.7944 -14.6045 
17802 9 19.4832 11.878 7.51898 -0.108302 -0.0977189 0.167426 
17554 3 19.6317 8.68088 7.9737 -1.90364 -5.36342 6.17208 
17801 9 19.3812 9.57046 8.10065 0.654908 12.2109 6.36822 
17558 3 19.3121 11.5602 8.35726 -4.16661 -2.13908 -0.446782 
17552 2 19.7279 7.97853 9.40881 25.6693 58.1653 57.3873 
17553 2 19.7446 12.5897 9.5152 43.4621 43.5928 66.8182 
17559 5 21.2085 12.1329 9.83297 6.9292 -0.538575 -10.3125 
17557 5 21.1128 8.33065 9.93016 0.898178 -11.586 -15.7269 
17556 5 18.49 8.44005 10.194 12.4189 -3.74265 -6.70357 
17631 5 18.754 12.2185 10.6826 1.6142 -5.67929 -4.06439 
20084 1 16.8199 10.2664 10.3615 -11.2331 -4.42534 -0.983635 
17566 7 22.7737 6.49197 7.09029 0.0952543 0.0188633 0.0510201 
17525 6 23.2369 6.30614 7.97014 -30.1022 -6.07136 17.3301 
15249 9 26.4199 12.3989 7.50271 0.846063 0.690581 0.254782 
14924 1 28.8784 6.30371 10.2599 24.5461 20.2452 -6.50673 
17459 1 22.8153 6.36449 10.4136 -83.4107 -68.1357 39.7093 
17550 1 22.6813 10.1773 10.109 18.8545 17.8199 8.59246 
15248 9 25.0074 7.30471 8.25379 6.7672 8.9013 8.76374 
15002 3 25.5553 12.1132 7.86039 -4.87935 -8.82603 8.92908 
14932 3 25.8534 7.69566 8.37038 -4.70448 -4.24549 1.27325 
15003 4 25.6929 10.0578 9.40228 -9.31573 -5.99776 -23.131 
15000 2 25.8234 11.5586 9.33827 30.3446 102.285 70.3547 
14927 2 25.9265 8.52626 9.67582 40.6955 66.963 72.7015 
15005 5 27.2586 12.0307 9.65026 -1.69637 -12.5606 -16.517 
14933 5 27.3368 8.19806 10.2714 9.2841 -13.9553 -17.5543 
15004 5 24.794 12.1885 10.2281 0.897763 3.19858 -12.1528 
14907 1 29.0423 10.186 10.3202 23.2193 18.8599 21.522 
15008 5 24.7476 8.17989 10.6591 15.7478 -0.069777 -2.5283 
14899 6 29.4402 9.94521 7.67407 -3.2565 0.0190533 5.28811 
17637 7 24.0129 13.1402 7.48134 1.6133 0.649802 -0.183047 
25427 5 0.471403 16.2254 10.9577 6.31971 -3.67972 -5.67809 
25424 5 3.05777 19.7432 10.2643 -14.945 -6.22133 -9.51174 
25423 5 0.62854 19.9386 10.7649 4.33029 -4.37522 -9.28188 
25422 4 1.53223 17.8586 9.5283 -9.65863 6.98571 -14.1411 
25421 3 1.35286 20.1653 8.46116 -3.24674 -2.6132 -0.147906 
25419 2 1.68921 19.4163 9.80763 -42.1139 140.715 64.2009 
25358 5 3.0433 15.9649 10.3935 6.08206 -1.1316 -11.5481 
25352 2 1.62447 16.359 9.9389 56.9484 2.63537 36.4223 
25333 1 4.76049 17.9652 10.8964 -5.46108 13.1949 -22.5248 
25357 3 1.27516 15.4524 8.77037 -12.415 -17.4862 18.7353 
25460 9 1.6173 15.8283 7.87293 0.103892 0.362313 4.23244 
25349 1 4.58657 14.1062 10.6957 6.48184 16.2575 -26.8833 
22803 5 6.49129 16.0975 10.8756 1.00961 -1.00581 -1.93306 
22875 5 6.46084 20.071 11.1158 20.2237 8.41588 14.7539 
25459 9 1.48999 13.6574 8.56205 -1.05059 5.04985 -4.11871 
22801 3 7.03055 16.5942 8.55987 -2.31878 -6.94895 4.41661 
2179 7 -0.387305 20.8468 8.22815 14.4701 2.28239 -6.2564 
22805 3 7.32975 19.3599 8.91011 -8.73805 -8.80848 25.1652 
22908 9 7.54595 19.9046 8.12021 0.0150407 0.265099 6.55623 
22774 6 7.84223 14.1301 6.46407 2.02074 1.26088 1.7589 
22907 9 7.21638 17.5067 8.66763 -0.0228151 20.2685 1.72189 
22800 2 7.69826 20.1918 10.1825 71.4153 58.2181 38.55 
22810 7 9.52718 17.6319 7.67339 -2.01684 0.955655 -1.99638 
22775 6 10.3724 17.5576 8.1234 -18.0923 -9.08118 6.84899 
22811 7 11.0269 17.744 7.42304 6.09309 1.06292 -1.23077 
20249 3 13.6146 20.1923 8.5115 -17.5172 -16.1008 19.915 
22799 2 7.50164 15.6895 9.76752 1.89509 21.9854 70.8223 
20181 4 13.1648 15.598 8.7498 -9.66025 -32.0305 -11.8284 
20250 4 13.59 17.8559 9.69511 -13.9251 6.48222 -26.9514 
20247 2 13.6446 19.4223 9.89672 3.11472 29.5 67.3983 
20175 2 13.7411 16.3389 9.95052 44.6607 116.392 84.0229 
20255 5 12.7826 16.0392 11.1348 -3.16803 -11.5238 -15.7927 
20251 5 12.5994 19.887 10.8751 -1.166 -0.0849326 11.1826 
22797 1 10.5866 17.8329 10.6706 3.39725 -1.23937 10.343 
22804 5 8.85928 16.0465 10.2629 -4.4494 -11.3745 -14.2927 
22806 5 9.15709 19.6726 10.6518 26.5666 -12.3531 -11.719 
20209 6 12.874 15.0323 5.7533 0.472273 -0.365844 1.47928 
20174 8 12.7095 14.4625 7.54514 27.3408 11.0012 -53.673 
22802 4 7.35344 14.1712 9.46207 -21.0968 9.36369 -28.5437 
22707 1 10.7485 14.2517 10.2767 12.4345 10.6033 -0.444638 
20180 3 10.8086 14.0423 7.95232 18.1284 -8.87781 4.85511 
20260 7 13.0324 18.8856 6.99744 0.131232 1.34241 1.28669 
20261 7 12.9162 17.3666 7.33817 -0.546861 10.6703 5.62543 
20401 7 13.4229 15.9899 5.62814 -0.160357 0.31158 -1.27763 
20406 9 10.0189 14.4108 7.4707 -1.23481 2.85611 -2.35041 
20413 7 11.9327 15.1884 5.26927 -0.0683774 -0.0247473 -0.438617 
20222 6 12.7014 18.0477 6.67459 -0.747285 0.696411 -1.04654 
22813 7 7.7456 15.0607 6.62462 -0.0697535 -0.0490746 0.0710644 
22812 7 7.44152 13.8113 7.30537 0.754817 1.45553 6.57012 
17861 7 18.0327 18.1656 5.18632 -0.0415043 -0.0257045 -0.195765 
17849 7 19.1146 19.332 5.5722 -0.0522977 0.15271 -0.565478 
17657 6 18.7692 18.3451 5.88217 -4.86188 -2.6799 15.2202 
20252 5 14.9691 19.7344 10.5394 -8.49323 -13.6815 -17.9393 
20182 5 15.2166 16.0409 10.213 -3.91261 -20.4877 -13.6483 
17622 8 18.5634 18.0799 7.75046 32.3473 28.0008 -13.4324 
17854 9 15.9449 18.6012 8.0719 -0.268772 2.04614 -3.16865 
17628 3 16.7563 18.0742 8.25458 3.93831 -10.0507 9.18881 
17624 4 19.3217 16.6826 8.46567 -7.97453 -11.5863 -3.98415 
17629 4 18.9827 19.4332 8.85904 -13.9056 -12.3817 0.846794 
17621 2 19.6951 15.6526 9.54627 47.363 94.9875 80.1546 
17623 2 19.5501 20.2671 10.0023 55.2555 26.7719 73.5364 
17630 5 21.0316 19.7719 10.2793 12.4835 -2.67944 -14.6496 
17627 5 21.1919 15.89 9.96206 1.24255 -17.648 -15.8669 
20155 1 16.8424 17.9752 10.6946 0.701329 10.4854 -42.7028 
17626 5 18.7672 15.8963 10.7355 -8.91784 -8.71666 -11.7941 
20171 1 16.7158 14.1373 10.3208 5.32462 6.77415 -4.20609 
17625 4 19.606 14.0957 9.12525 -6.21333 7.79735 -11.4622 
17564 7 21.4906 17.2833 7.58657 -0.580278 1.59032 -1.11022 
17703 5 18.6795 20.0258 11.2014 -15.6687 -12.6939 -21.2176 
17709 7 19.905 20.6273 7.34679 2.89882 4.92966 4.23696 
20259 7 15.568 20.8847 8.4035 12.2251 3.5565 -2.30146 
17526 6 22.4132 17.452 7.70597 -7.61885 -6.78554 17.656 
17563 7 22.8092 16.6576 7.3521 0.267403 0.365203 -1.84497 
17619 1 22.5682 17.9268 10.3236 11.0014 12.6799 -28.8962 
15250 9 25.4259 16.554 7.3496 3.25935 4.21967 70.4831 
15006 3 25.6058 15.7572 7.92658 -17.3987 -12.4087 55.6853 
15072 4 25.3173 20.4252 8.40544 -13.1386 -7.95567 -3.248 
15073 4 25.9599 17.9542 9.15621 -16.159 5.99206 -34.86 
15069 2 25.8295 19.4844 9.52152 47.8589 196.429 67.7433 
15075 5 27.2671 19.8707 9.91392 4.88359 -4.10406 -14.4967 
15001 2 25.8934 16.4473 9.39988 32.7539 23.0302 31.6346 
15007 5 27.2951 15.9854 9.7832 -0.705846 -10.7733 -15.6045 
14980 1 29.1857 17.8209 10.1444 -13.0324 -20.7573 14.861 
15074 5 24.8028 19.6389 10.6176 -5.98423 -5.05366 -18.6153 
15079 5 24.8396 16.1163 10.4638 8.48391 -3.68384 1.34583 
12533 7 25.4571 18.3754 7.23091 -0.33905 4.49825 6.14078 
17532 1 22.9834 14.1035 10.1761 9.41222 12.1921 8.31509 
14998 1 28.6373 13.9834 10.0874 19.9093 24.9276 12.5521 
12492 6 25.1645 17.9196 6.43544 -1.28032 -1.72098 -0.956707 
12532 7 24.2391 17.8074 6.45162 -0.0686529 0.0121921 -0.216429 
17636 7 24.2982 14.6547 7.77674 3.19366 -4.68235 -4.59168 
17597 6 27.3956 19.7327 6.47718 -16.3626 -1.10834 0.914363 
17635 7 27.0344 19.9354 7.31032 6.36152 1.2169 -2.2695 
17596 6 23.5563 13.9987 7.66239 -11.4245 -1.59236 4.56384 
14974 6 28.7308 14.0837 7.53935 -5.80119 -10.961 7.27381 
17634 7 26.9707 18.9124 6.11254 0.288619 0.570448 -0.150295 
15084 7 28.6931 18.2675 6.90767 0.598903 2.781 -1.50865 
15012 7 28.1952 14.867 7.30744 1.77795 1.80918 -1.72767 
15044 6 29.2899 17.8272 7.55162 -18.5263 -15.5715 13.9141 
15011 7 29.5706 14.1102 6.99075 5.06301 0.88202 -0.226975 
25461 9 1.63963 21.1191 8.56579 -0.42703 9.05155 -5.9495 
25417 1 4.459 21.7465 10.9217 -16.8064 -19.5127 -22.4988 
24923 5 0.754769 27.5218 10.9484 6.09836 1.79994 -1.59911 
25425 3 1.35108 22.98 8.77836 -10.6586 -8.31999 18.0083 
24927 5 0.559259 23.61 11.1153 15.5237 -1.48568 7.97909 
25426 5 3.10363 23.8017 10.4009 3.7535 -9.21755 -9.37549 
25420 2 1.64879 23.9265 10.0018 35.4597 98.2988 58.4536 
25401 1 4.97038 25.5329 10.7242 12.7838 5.14516 11.5339 
24924 5 3.18735 27.1766 10.4054 -6.10282 -6.22939 -13.8205 
24922 4 1.38256 25.4386 9.75254 -16.5449 10.0756 -16.9991 
24919 2 1.7823 26.9563 9.95451 1.56036 145.425 59.678 
24921 3 1.55556 27.7248 8.56562 -3.30836 -0.938935 8.26077 
25462 9 1.60156 23.3783 7.96981 -0.0541885 0.118771 1.82069 
22871 5 6.64021 23.6959 10.9095 4.67526 -4.78708 -4.63238 
25451 9 2.36751 27.8615 8.13061 0.056815 0.481803 1.55607 
22375 5 6.78156 27.3777 11.2762 1.94093 -4.0884 -3.6718 
20355 9 13.7553 21.1037 8.67011 -2.60363 21.3531 -0.855361 
22873 3 7.36095 26.8242 8.94079 -1.78873 -2.99281 22.431 
22910 9 7.83453 27.1872 8.16884 0.0169793 0.302483 5.20046 
22881 7 10.5673 22.2037 7.78641 0.176061 0.153098 -0.590496 
22880 7 12.0072 21.7432 8.22322 12.0754 4.49727 -4.48465 
22869 3 7.56442 24.0265 8.5961 -0.862377 -1.28691 0.71098 
22842 6 11.0399 21.8185 8.50693 -11.5734 -8.78926 2.19024 
22909 9 7.42422 24.9915 8.72358 -0.286833 9.49675 -0.574178 
22870 4 7.80675 21.6814 9.76784 -10.0116 12.9923 -14.9829 
22781 1 10.8959 21.6885 11.0129 -25.4905 -19.4031 28.0596 
22868 2 7.76545 27.7412 10.1816 38.1558 98.5802 38.6828 
22867 2 7.78902 23.2324 9.92461 54.4556 190.456 73.2671 
22381 7 12.0152 26.341 8.4485 11.1255 9.21462 -1.37349 
20253 3 13.4682 23.4016 8.82795 -29.3882 -27.8173 6.81854 
22380 7 10.8121 26.2531 7.54966 0.0750382 0.106288 0.0954694 
22342 6 11.2091 25.8188 8.3988 -19.4925 -2.72539 29.927 
20317 3 13.3219 27.8427 9.08682 -10.6125 -13.3188 -9.34247 
20248 2 13.7696 24.0294 10.2263 8.89853 4.57577 109.505 
20318 4 13.624 25.5447 10.0164 -29.4301 -19.1523 -43.4897 
20315 2 13.7788 27.0543 10.3348 52.0863 -14.0964 82.865 
22865 1 10.6865 25.3992 10.9226 12.1928 11.2882 13.3424 
22872 5 9.17462 23.6871 10.462 5.36467 -15.7369 -13.9371 
22874 5 9.24947 27.6706 10.5948 6.69965 -9.79816 -9.7593 
20356 9 12.5954 23.6209 8.49206 10.2761 3.86511 -9.97426 
25431 7 14.1509 26.52 7.83751 1.08385 4.73916 6.64586 
20323 5 12.8525 23.6161 11.429 1.74116 -7.95012 1.052 
25430 7 14.093 24.9955 7.86813 1.71317 4.75415 10.3975 
25395 6 14.4016 25.7329 7.27378 -0.140903 0.0900903 -0.157372 
20258 7 15.2294 22.3163 8.12146 1.36702 0.144708 -1.37926 
20223 6 16.0015 21.7513 8.2238 -7.36063 -1.26944 8.98348 
20245 1 16.5342 21.695 10.8038 16.4934 21.4754 34.9332 
17698 4 19.4354 21.7483 9.56107 -12.3135 -4.02141 -28.927 
20320 5 15.2214 27.4242 10.856 4.31962 -11.2286 -15.0556 
20254 5 15.1801 23.5949 10.561 -15.7929 -11.4245 -20.3171 
20329 7 17.2434 26.6466 8.28058 4.0191 3.22037 -3.62655 
20328 7 16.0419 25.8023 7.61998 1.70755 -0.0112506 -0.0727107 
17803 9 18.6355 24.4714 8.19816 9.14764 9.24077 -0.566141 
20290 6 16.6573 25.8385 8.42977 -27.208 -4.78114 8.12234 
17697 3 19.4666 23.9299 8.24968 -7.47776 -15.5922 7.20214 
17701 3 18.7572 27.5768 9.07536 -11.4158 -29.6648 -3.39152 
17695 2 19.6311 23.298 9.64847 2.20666 6.02284 79.3679 
17696 2 19.6976 27.9701 10.2409 33.2958 100.913 88.6771 
17700 5 20.9899 23.6351 10.1729 -17.5709 -7.61437 -18.7938 
17702 5 21.0953 27.3466 10.1236 7.87669 -13.6214 -20.1816 
17699 5 18.7076 23.7838 10.7613 -3.50309 -4.17279 3.90155 
20229 1 17.0048 25.6018 10.9426 18.4448 14.6764 -16.7974 
17708 7 20.0702 22.1005 7.0657 -0.240245 1.39814 0.780126 
17670 6 20.1319 21.2549 6.64674 -0.747204 0.852098 -1.27052 
17707 7 20.7868 25.2363 7.6314 4.69172 4.92862 0.00915295 
17706 7 21.1787 26.5559 8.43819 0.178309 6.53921 6.98808 
17671 6 21.5933 25.7538 7.94146 -0.538872 -4.87358 4.68678 
17804 9 18.1596 28.2261 8.79174 4.32068 -0.342502 -3.05737 
15302 9 22.12 22.0167 7.2663 -10.7418 2.28459 -0.601481 
15082 7 28.9341 21.4367 6.98265 -0.113945 1.92007 -3.01446 
15309 7 26.1711 21.1856 5.56242 -0.0513269 0.354489 -0.582158 
15297 7 25.7773 22.9358 5.36905 0.0247754 0.422432 0.0389857 
15076 3 22.8653 21.7306 7.945 5.1065 -10.3349 6.56104 
15105 6 25.4296 21.9972 5.7434 2.51278 2.78198 8.80944 
15067 1 28.5009 21.8246 10.3102 7.4275 14.1595 37.49 
17603 1 22.8719 21.8054 10.3091 40.7246 31.0369 44.8614 
15070 8 24.6898 21.8654 7.53391 8.86479 22.1193 -4.83045 
15157 7 24.761 24.7113 6.5409 0.091419 1.45665 -2.20781 
17693 1 22.4585 25.6458 10.3024 35.2402 46.6755 74.1849 
15118 6 24.3516 25.0692 5.80024 0.216112 -0.0186626 -0.0748803 
15156 7 23.4675 25.4068 6.08223 0.347829 0.0667449 -0.017771 
12750 9 28.7793 27.0604 8.02173 -18.1233 -1.29288 -3.46732 
15145 3 25.8709 28.1424 8.32624 -25.0339 -10.0786 23.7132 
15077 4 25.2347 23.1977 8.50469 -14.9703 -21.9479 -12.1338 
15146 4 25.5466 25.6818 9.29943 -7.93654 17.8724 -16.0404 
15143 2 25.8227 27.2278 9.63665 34.0188 57.693 42.9107 
15071 2 25.6377 24.1622 9.58877 43.7355 138.374 70.1999 
15078 5 27.0823 23.775 9.8664 3.34017 -1.71083 -11.9784 
15148 5 27.2019 27.5255 10.2775 11.3614 -13.2781 -15.6957 
15051 1 28.9278 25.6837 10.4438 0.556975 13.0359 45.152 
15147 5 24.7278 27.7419 10.5663 3.54816 -1.97818 -7.73407 
12524 3 29.1596 26.0649 8.01414 -11.3124 -1.33231 8.90478 
15045 6 29.2043 21.7754 7.82857 -18.5255 -11.0781 5.38955 
15251 9 25.5134 27.6474 7.63837 -0.0852015 -0.287533 15.5449 
15151 5 24.6677 23.8201 10.7274 -4.88419 -8.32512 -14.6391 
25272 7 0.79671 4.86789 16.0146 1.55482 1.7301 9.67118 
25198 5 4.5419 2.55475 12.6561 -16.6166 -10.4558 -11.7846 
25195 5 4.3158 -1.09258 12.7632 -0.75984 -3.26945 2.38157 
25511 9 -0.101541 0.74374 16.1219 -16.5607 4.61976 -2.00812 
22635 1 6.05896 0.692999 12.8525 -15.3565 -2.10748 -12.5564 
25268 5 2.06322 2.89899 12.9931 -0.586869 -11.1001 -22.5645 
25258 1 0.250924 4.4912 12.7638 14.2007 7.71865 4.28044 
25207 1 0.476342 0.786529 13.0733 17.8118 44.3707 26.2346 
25191 2 3.47612 3.03985 13.5769 20.6851 165.518 55.908 
25263 4 3.57926 4.53329 13.9916 -30.5886 12.3529 -39.7019 
25197 4 3.26023 2.0922 14.7531 -12.698 -27.1719 -10.2425 
25192 4 3.04502 -0.482259 14.848 -8.40807 -10.6479 -4.31757 
25196 3 0.648122 0.927434 15.4088 1.36328 -17.3774 12.3208 
25190 8 2.44586 0.89454 15.8118 -9.68987 18.7159 -38.2027 
25240 6 3.30499 0.750225 17.5713 -10.2296 -20.028 29.3629 
25519 7 3.01917 -0.111694 18.1441 0.693475 -10.3556 -28.4232 
25507 7 3.03331 1.50466 18.2861 6.38087 3.11411 -12.3499 
22649 6 4.11757 4.11283 16.5813 -22.7312 -9.34238 -45.9823 
25308 6 0.0898466 4.60961 15.3021 -18.4274 -1.66206 15.4076 
25270 6 1.78552 4.6613 17.7856 -26.5748 -12.7331 -5.49697 
25310 7 2.01968 5.4578 18.2753 -4.7766 -5.02517 0.61131 
22655 1 6.37544 4.67075 12.8239 -15.7865 3.76254 -5.64134 
25194 5 1.89442 -1.62182 13.1754 -0.136501 -12.9706 -20.6993 
25189 2 3.31878 -1.5892 13.8009 45.7587 36.306 96.9449 
25309 7 2.59089 4.28651 17.2453 26.5427 0.395402 3.17631 
22683 6 6.24475 0.692781 15.3342 -21.8884 -12.2079 -12.7584 
22684 7 3.75226 3.41555 15.9572 2.20026 3.28741 3.48891 
22644 3 6.8728 4.79296 15.1944 8.97187 -11.4671 6.55828 
22759 7 4.29827 4.42791 18.4799 -4.42282 -10.8192 1.27963 
22685 7 4.11729 4.92458 16.0287 0.631931 8.70799 5.66222 
20062 7 6.39853 1.58619 18.217 2.28222 8.98463 0.0934252 
20061 7 6.22382 3.041 17.7373 3.87793 -0.318179 -0.664193 
22650 7 6.34401 -0.114339 15.8458 3.70578 3.6097 -5.80029 
20023 6 6.82419 2.29737 17.6795 -17.3298 -12.3958 -18.897 
22717 6 4.87902 4.85714 19.1002 -15.9663 -7.6123 -7.20053 
25472 9 1.92103 3.51115 18.9547 1.61777 45.0662 30.138 
22959 9 6.27585 5.44311 15.7383 -1.02458 8.387 0.732064 
22651 7 6.33323 1.40967 15.9768 3.81573 0.82054 1.52409 
22760 7 5.22249 5.57326 18.5214 -0.333099 3.38017 1.97694 
25236 7 0.222491 1.31904 18.518 -1.29705 10.9821 -0.0562434 
22687 7 5.37993 -0.7851 18.9073 1.67152 -2.59102 -6.38772 
22648 6 5.76584 0.0327056 19.0524 -19.4613 -33.4617 14.1748 
12753 9 29.3566 28.419 18.0591 -35.9721 0.476285 -3.95098 
20022 6 13.8207 1.1998 17.6661 -15.1371 -40.7403 -11.3731 
20101 7 8.06709 0.389113 17.5571 5.86116 8.85104 -0.261495 
22931 9 9.57789 -0.980927 15.7337 -2.08938 4.47439 38.9116 
22643 5 10.3472 2.57234 12.1955 -2.4062 -4.32156 -10.1902 
20083 1 12.0539 4.57824 12.2941 19.2205 11.2859 25.0654 
22642 5 7.78438 2.32799 12.6693 -1.73498 -7.44927 -21.0017 
22572 5 10.3915 -1.19034 12.4814 0.766782 -7.80257 -6.63326 
22647 5 8.01803 -1.15376 13.3887 11.2759 -14.5981 -17.6637 
20029 1 12.4935 0.818447 12.5759 -0.0196424 7.70002 -11.9067 
20095 5 13.8672 2.81253 13.0198 -3.77265 -12.5418 -13.2397 
22637 2 9.23854 2.21284 13.1776 49.5762 101.755 78.91 
22565 2 9.47766 -0.798971 13.6553 47.5254 47.9093 38.5752 
22641 4 9.6135 0.790931 13.697 -20.269 10.2342 -22.0395 
22640 4 9.10375 3.21619 14.2882 -9.71618 -24.2672 -14.9969 
20060 6 12.6301 0.790099 15.1428 -10.9186 -2.74944 2.54945 
20025 7 12.3121 0.480457 15.9973 1.97146 2.86388 -3.16101 
22638 8 8.70595 4.47925 15.3854 18.7664 9.37816 -28.3921 
20024 7 13.3806 0.11694 15.083 8.47621 9.14325 -4.12395 
22688 6 9.48841 4.27502 17.1292 -9.93398 -3.59545 16.9999 
20130 6 8.6293 -0.369634 17.2539 9.62061 2.55165 16.025 
20016 5 13.8732 -1.10957 13.0216 3.44549 -15.9323 -19.5239 
20100 7 8.05376 -0.686065 16.5035 3.48331 2.71082 4.77607 
22967 7 9.12983 3.44252 17.7473 0.853268 3.07871 -14.9846 
22571 3 10.0865 -1.40627 14.9819 -13.4538 -16.2713 25.9329 
20064 7 14.2194 0.434625 18.0251 -5.58704 -9.44129 -13.2928 
22918 9 8.72049 -1.11534 18.8822 -0.490959 9.12209 68.327 
20096 6 11.1619 0.571375 18.7328 -1.6721 -3.57601 17.4356 
20135 7 12.0378 0.517234 18.19 22.5331 3.53002 -1.60331 
22919 9 7.94621 2.60342 18.8431 -6.85383 -2.29557 -105.132 
22955 7 9.40726 5.06741 17.8258 3.58785 -0.699912 -13.3487 
20098 7 11.4216 4.05603 18.2474 1.3935 0.397897 -4.74759 
20134 7 10.4995 -0.101594 18.3588 12.4491 6.41751 -1.77752 
20379 9 14.2284 1.93624 15.2766 18.5305 10.5286 12.0842 
20366 9 14.2359 2.31356 18.8653 1.40971 0.871563 -18.3346 
20367 9 14.2769 4.80387 19.0226 -0.792133 -16.3794 -32.2151 
20063 7 14.1849 1.34635 16.7972 1.29211 1.38986 5.07719 
20051 3 14.3335 -1.25544 19.1159 -24.9372 -31.7862 9.78116 
20131 6 11.6417 4.35939 19.1099 -25.9301 -16.1646 -15.569 
20099 7 12.339 5.02422 18.968 -0.465626 2.58608 -5.08642 
20378 9 15.4007 0.0444891 14.8487 2.09185 82.5952 26.2303 
20012 2 15.2359 -1.61828 13.5115 14.7012 157.783 72.1161 
17469 5 19.9364 -1.30131 13.4326 -9.81519 -12.8665 -12.8636 
20017 5 16.2815 -1.21496 12.5395 8.35482 -2.12257 -8.3646 
20020 5 16.2894 2.4578 12.6312 -3.67746 -5.62677 -7.87235 
17477 1 18.4308 4.50707 12.7514 52.9004 48.3411 57.5772 
17458 1 18.218 0.637135 12.871 57.8408 42.6194 13.3156 
17464 5 19.9587 2.61017 13.0923 -3.82004 -11.1378 -15.2227 
20014 3 15.3481 -0.927596 14.9324 -15.0882 -8.58146 26.4593 
20013 2 15.2355 2.86552 13.6686 26.1467 10.182 65.1788 
20089 4 15.4847 4.41259 13.8828 -17.8642 11.3329 -23.2768 
17460 2 21.2934 2.30374 13.8302 69.9718 47.369 89.7043 
17386 2 21.2555 -0.760946 14.0881 57.9852 150.096 28.8191 
20019 3 15.1602 1.94817 14.9639 -16.363 -2.19705 21.1675 
17466 6 17.9625 0.641398 15.4229 -28.9604 -5.62829 17.4378 
17494 7 17.9161 1.455 15.9975 8.27532 14.7952 -3.6433 
17493 7 18.1388 -0.12936 16.0252 6.28494 5.19599 -4.40648 
17471 6 18.8518 2.98281 16.6367 -28.566 -33.962 -4.89131 
17510 7 19.6379 2.69909 16.1457 8.93135 2.86441 -6.76646 
17509 7 19.0876 2.6547 17.5422 -2.90792 1.72714 -3.52432 
17463 4 21.2166 0.803669 14.1626 -14.7857 0.00537738 -26.7199 
17508 6 18.0816 5.20193 15.196 -5.0653 -23.2953 5.24346 
17473 7 18.2824 4.51908 15.8135 1.58032 3.97018 -9.79729 
14959 7 20.5575 -0.617979 18.3079 -2.36269 -8.22074 3.16463 
14960 7 20.7177 0.795154 17.9534 -2.43089 -6.52718 1.92006 
17391 3 21.5933 -1.5954 15.3443 -23.3266 -25.5269 -5.61642 
17825 9 21.593 -1.00497 16.1123 1.31998 1.84043 -33.6727 
17462 3 21.2761 3.19741 15.0916 -23.2335 -42.2392 0.092702 
14918 6 20.8253 -0.0815806 17.556 4.74038 -13.705 -21.4104 
17826 9 21.1883 4.09706 14.8835 -1.47442 17.6784 -9.15382 
17544 6 17.1463 4.45279 18.3981 -25.8775 -13.704 7.74649 
17582 7 17.6598 4.13281 17.6111 6.11287 6.06623 1.47097 
17456 7 15.972 -0.294019 18.6708 3.49279 -0.29588 -5.65102 
17457 7 17.218 0.140764 17.88 -0.0484149 1.91002 0.155746 
17503 6 16.9423 -0.0879185 18.7903 -7.81513 -7.91816 17.252 
17472 7 17.0743 5.07867 14.9137 21.5859 1.03192 -1.25951 
17583 7 16.3193 4.05382 18.2717 -4.62385 1.88349 -5.96066 
17499 3 20.1936 2.58941 19.1048 -22.7269 -23.5545 17.4066 
14905 7 21.9662 4.88458 18.7465 16.2165 9.50682 -5.62373 