ITEM: TIMESTEP
430000
ITEM: NUMBER OF ATOMS
25517
ITEM: BOX BOUNDS pp pp ff
-3.8959205201285124e-01 6.0088135642019459e+01
-1.9452389155355383e+00 5.9115524189537531e+01
-1.2206056431032383e+01 1.1390111600702880e+02
ITEM: ATOMS id type x y z v_stressx v_stressy v_stressz 
25292 7 5.89857 3.03966 7.5916 -2.46005 -8.52308 -6.16697 
25293 7 5.98077 1.53035 7.7064 -1.90538 -5.91536 -1.88842 
25252 6 5.35811 2.25094 7.51796 -6.34464 -3.23126 0.18954 
25287 5 0.61597 0.755495 10.7564 7.85436 -1.63942 4.57095 
25283 5 2.94291 4.2301 9.842 10.9821 6.59561 -13.01 
25281 4 1.3887 2.44216 9.07367 -12.6814 2.00198 -16.0929 
25280 4 1.07853 5.00258 8.46007 -12.61 -8.49338 -6.46679 
25277 2 1.45655 3.94107 9.49571 50.8538 35.2089 78.5837 
25215 5 2.99957 0.588718 9.72621 -14.5362 -10.1297 -12.1049 
25209 2 1.59287 0.935181 9.44522 7.10457 -57.9754 73.2634 
25188 1 4.8243 2.58953 9.97468 5.38919 1.18263 14.2061 
25214 3 0.796635 0.0137284 8.44439 -2.17855 -4.81853 2.03595 
25282 5 0.520916 4.37471 10.6565 -15.1317 -14.4706 -18.8322 
25458 9 1.40812 -0.435335 7.83607 0.0171327 2.09243 1.72721 
25206 1 4.52732 -1.17961 10.115 34.7327 37.7541 20.245 
22660 5 6.52822 0.875659 10.2203 -1.30732 -5.68625 -16.3187 
22735 5 6.623 4.87348 10.5536 2.41488 -9.16826 -14.6515 
25505 7 1.83983 5.65447 5.50835 -0.0552891 -0.160635 -0.295955 
22662 3 7.17647 4.29529 8.22411 -12.1233 -23.1618 -18.9213 
22658 3 7.30314 0.346889 7.89736 -14.9442 -15.2334 -11.5031 
22905 9 7.65252 -0.485879 7.46068 0.0201317 -0.41454 -4.4813 
22906 9 7.50322 4.57024 7.35908 -2.7434 4.31566 9.70472 
20115 7 11.1372 2.292 6.49758 0.444785 -0.00748131 -1.15146 
22656 2 7.7059 0.365729 9.40584 21.6959 74.0717 59.8921 
20116 7 12.1136 2.88755 7.40659 19.6432 6.67659 2.63523 
20078 6 11.1398 2.86581 7.23657 -15.9102 -11.6072 1.67678 
20106 3 13.741 4.72985 7.46261 -15.6436 -10.9911 42.3665 
22657 2 7.60419 5.1024 9.41016 54.3107 -15.1119 24.0445 
20036 3 13.619 0.47741 7.57109 -16.5466 -19.5517 16.7797 
20107 4 13.6664 2.6833 8.8298 -17.9544 -14.0653 -34.1345 
20104 2 13.8784 4.18168 8.97251 31.4084 35.9315 94.0633 
20031 2 13.7132 1.1448 8.96008 62.3963 164.03 15.4062 
20108 5 12.6966 4.70757 9.81807 14.8212 12.0959 1.85129 
20112 5 12.4932 0.846951 9.91178 10.9329 -0.453881 4.96913 
22654 1 10.4859 2.78478 9.68506 11.3672 10.1582 11.0133 
22661 5 9.03983 1.11007 9.56315 -7.44904 -6.46133 -15.9456 
22663 5 9.10858 4.7108 9.73761 4.30036 -12.8424 -15.4335 
22563 1 10.886 -1.13469 10.1589 -0.777404 -0.303944 -21.247 
22659 4 7.7627 -1.12896 9.68153 -9.30189 -34.8693 -34.5016 
22629 6 11.3751 -1.065 7.76545 -16.7879 5.05259 2.61348 
22669 7 11.9249 -0.207968 7.44815 1.30147 5.20864 -1.31048 
20352 9 13.8605 1.22514 6.87465 0.712422 12.5306 14.6609 
20189 7 14.2777 3.18994 6.51456 0.272112 13.5239 8.36791 
20353 9 14.543 5.23857 7.22704 7.73141 13.1964 16.7777 
20148 6 14.5671 2.45013 5.87332 0.144728 0.0571711 0.0989017 
22740 7 11.2703 5.5881 6.8279 3.28538 1.4827 -1.17929 
22738 7 8.76742 5.41578 5.90114 -0.684202 0.696747 -1.38184 
22701 6 7.85394 5.37142 5.69312 0.466857 -0.307467 7.9776 
22739 7 7.886 4.86164 4.87022 -0.0110934 0.0203063 0.0084386 
22670 7 11.9327 -1.89861 7.72342 1.05602 1.64808 -5.24934 
20188 7 15.4435 2.20345 6.22553 0.812674 -0.136807 0.0731945 
20037 5 15.0057 0.565552 9.66218 -0.975605 -7.01568 -13.2497 
20118 7 17.8719 2.63796 7.70159 5.66462 -0.336961 -2.92028 
20117 7 17.6995 1.17882 7.44002 3.0212 2.54174 -4.68784 
17799 9 19.455 -0.241526 7.33338 0.312322 6.60111 17.9292 
20077 6 17.1284 2.01775 7.60787 -23.2117 2.37058 26.6055 
17484 3 19.536 4.02271 8.03155 -4.19677 -2.55493 -2.28011 
20109 5 15.1822 4.68195 9.53593 -5.793 -7.30427 -17.4413 
17480 3 19.3808 0.510653 7.95906 -16.4146 -31.9269 10.9015 
17478 2 19.7385 0.13463 9.405 32.5561 34.3928 48.0987 
17479 2 19.7269 4.90401 9.32133 46.4129 113.339 60.5335 
17485 5 21.0972 4.45706 9.83859 4.8913 -15.997 -16.7002 
17483 5 21.125 0.57616 9.92672 5.0292 -10.033 -13.4372 
17482 5 18.7273 0.612358 10.4453 1.0383 -3.57489 -5.90561 
17560 5 18.5746 4.39351 10.2378 -1.01253 1.57276 -10.9992 
20011 1 16.7883 2.43064 10.1919 50.6655 45.784 50.9962 
20028 1 16.5417 -1.33752 10.1131 23.7976 17.1963 9.91834 
17481 4 19.613 -1.37684 9.30614 -12.293 -19.5873 -38.0314 
17800 9 20.2785 3.41394 7.96437 0.302493 -2.90329 -5.50075 
20002 6 16.2002 -1.21507 7.53432 -10.4091 -7.52464 13.564 
20044 7 15.5857 -0.449442 7.68688 4.32463 8.56389 -2.92809 
20043 7 16.3516 -1.12082 6.60323 0.282218 0.200527 -0.841563 
17377 6 19.8786 -1.6773 6.3322 0.248351 -0.13976 -0.010206 
17415 7 20.5742 -1.92657 6.98281 2.83837 2.49512 2.05888 
14864 7 23.6314 3.83266 7.75133 5.58475 -4.70732 -1.49704 
14825 6 23.2988 2.969 7.82153 -9.26997 -3.77542 1.47246 
14863 7 24.1611 2.53617 7.90018 3.86697 -1.33747 -0.589121 
17476 1 22.5994 2.5974 10.2549 -65.5895 -40.7787 36.7488 
14928 3 25.5679 4.59148 8.20809 -31.2605 -49.8508 -46.5261 
15246 9 24.7065 0.00657495 8.04332 7.96932 10.7858 20.1513 
14856 3 25.5405 0.383335 8.16649 -12.5712 -14.7923 10.5119 
14929 4 25.6618 2.47021 9.27814 -17.6423 -35.2076 -33.823 
14851 2 25.7726 0.935136 9.6021 19.2132 -189.952 75.5313 
14926 2 25.8313 3.99121 9.61155 28.1844 145.619 88.9705 
14857 5 27.172 0.513951 10.0212 -9.65005 -11.9079 -21.2909 
14931 5 27.2703 4.30837 10.1061 -28.3323 -11.4906 -17.916 
14832 1 28.9014 2.41808 10.4207 14.9875 12.0326 55.7966 
14930 5 24.8007 4.37565 10.6576 12.5443 -4.43744 -12.963 
14934 5 24.7275 0.511689 10.6576 4.64044 -3.9212 -0.480161 
17384 1 22.8636 -1.16741 10.5973 -1.24024 3.894 -7.9666 
14848 1 28.7231 -1.43222 10.2624 15.1887 18.6127 8.21917 
14898 6 29.1786 2.45721 7.88738 -13.7399 -15.3282 6.07365 
15247 9 26.3681 4.66526 7.72718 -1.61677 -1.09717 -15.319 
14826 6 28.1456 -1.3901 7.71182 1.3266 -3.46635 26.5733 
14861 7 27.5228 -0.59177 7.7367 5.00474 5.86379 -2.19551 
14862 7 28.7608 -1.17174 6.9734 0.155165 0.0381762 -0.0676059 
17565 7 23.8543 5.62398 7.62904 12.5257 3.74292 -1.62481 
17491 7 23.3409 -0.830267 7.25909 0.09721 0.072541 -0.454542 
12347 6 29.4782 5.3719 8.00631 -15.2965 -7.13824 4.01995 
14939 7 29.2544 3.33895 7.63004 0.450246 -0.926757 -1.21219 
17492 7 24.1978 -1.77871 8.08715 8.20616 2.46146 -6.05224 
17450 6 23.2929 -1.42611 8.02021 -21.647 -6.9949 18.6603 
25291 7 5.22591 6.53661 7.32751 1.17528 1.65909 -3.19614 
25290 7 3.82687 6.55555 6.86919 -0.69085 1.66275 -4.43731 
25253 6 4.33607 6.71227 7.63615 -9.58144 -11.6545 2.20456 
25517 7 1.84279 7.29014 5.50902 -0.0255952 -0.0567034 -0.553708 
25313 6 1.21101 6.45671 5.78137 6.01137 -5.34772 30.3005 
25362 7 1.19888 10.608 6.31952 -0.0158551 -0.0113452 -0.0233845 
25275 1 4.36027 6.50413 10.1833 4.15294 13.0526 11.3014 
25278 8 0.639374 6.49188 7.63496 52.8156 32.0536 9.25179 
22958 9 3.89074 10.3239 7.2783 -3.47603 1.48167 0.282812 
22732 3 4.70032 10.3548 7.96195 2.4358 -12.4906 13.6106 
25359 5 0.701437 8.49354 11.0939 -9.52107 -10.3834 -16.633 
25356 5 3.08021 12.146 10.2169 9.91968 0.157949 -12.9043 
25355 5 0.535314 12.2845 10.6518 -2.49321 -5.2 -7.8121 
25354 4 1.48185 10.2856 9.54639 -13.7259 14.0204 -27.161 
25353 3 1.39194 12.6945 8.41831 -12.9546 -8.16663 3.46949 
25351 2 1.63225 11.8296 9.72046 40.5795 47.9741 66.7197 
25286 5 2.93236 8.28049 10.0288 -5.73601 -16.0765 -19.4161 
25285 4 0.892127 7.85648 8.74192 -20.5351 -18.7499 -5.02388 
25279 2 1.49492 8.71367 9.83417 15.9449 98.9029 78.7643 
25259 1 4.86194 10.2149 10.3927 8.23147 9.47348 61.9922 
25327 6 1.60703 9.7444 6.34125 2.33592 1.34992 -0.750444 
25363 7 1.38635 9.50649 7.2315 0.49489 2.73663 1.45411 
22807 5 6.5607 12.2849 10.8694 -15.6077 -14.3376 -17.4082 
22730 5 6.65234 8.34528 10.5398 -4.46816 -14.6067 -13.3872 
22726 8 6.48614 10.4372 7.49213 -1.76148 17.6685 -26.162 
22761 6 7.05704 10.8316 5.66761 1.76937 2.51514 6.86094 
22733 4 6.9844 11.7221 8.61372 -10.9069 -12.6389 -2.34547 
22728 4 7.23016 9.05362 8.29312 -12.8453 -20.2188 -5.67756 
22953 7 7.91026 10.1976 5.3838 -0.0662384 0.100119 -0.65337 
22965 7 7.33207 11.8331 5.45166 -0.048821 0.141616 -0.27744 
22741 7 11.5 7.01103 7.05421 2.60441 -0.0343045 -1.56175 
22700 6 10.8104 6.36788 7.23855 -16.0808 -2.10405 18.4523 
22636 1 10.9188 6.69179 9.82281 4.46345 9.67747 12.0694 
22729 4 7.48133 6.61374 9.11192 -11.2174 -8.67988 -28.2285 
22668 7 10.5831 8.59932 7.42923 1.9114 4.3395 -3.13137 
22725 2 7.70374 8.13304 9.39568 27.0726 31.5615 98.0436 
22727 2 7.53968 12.6129 9.75953 17.4565 133.143 79.0805 
22630 6 10.7174 9.56513 7.55044 -8.21371 0.742399 5.16985 
22667 7 11.6785 9.56 7.58776 1.26871 0.729455 -1.3073 
20110 3 13.3722 8.00482 7.87861 -10.8768 -1.09743 -3.61673 
20176 4 13.3404 12.979 8.33811 -6.63328 -6.93136 -4.15191 
20177 4 13.5478 10.5013 8.95979 -6.34502 -0.360081 -16.4431 
20173 2 13.7057 11.9908 9.40771 34.2873 -5.01338 77.5866 
20105 2 13.7244 8.93675 9.12343 -1.50002 6.85286 86.5331 
20178 5 12.5598 12.2564 10.4158 -7.66591 -12.3952 -21.9153 
20183 5 12.8988 8.51128 10.3587 -3.69979 -11.1646 -7.95681 
22734 5 8.97942 12.4092 10.1072 -12.4431 -12.5866 -16.9807 
22723 1 10.5486 10.4168 9.97488 -3.24038 4.16053 9.43796 
22731 5 9.11607 8.33188 9.85191 -15.6241 -24.3456 -22.3696 
20354 9 13.8366 7.1662 8.02076 -1.18112 -12.3308 -25.4926 
17489 7 15.3685 7.53149 7.27379 -6.2132 -2.27651 -3.80146 
17490 7 16.4114 7.08597 6.51817 -0.225281 0.0335111 -0.312494 
17451 6 15.9423 6.78743 7.29642 -18.7302 -17.1623 17.5775 
17555 4 19.5148 6.40419 9.24816 -10.7833 2.38745 -18.5601 
20102 1 16.4765 6.46221 9.86905 11.0119 0.469577 19.3568 
20179 5 15.0791 12.3713 9.86379 2.66036 3.75597 -11.6961 
20111 5 15.0953 8.51182 9.52882 -26.301 -13.8257 -15.102 
17802 9 19.4832 11.878 7.51898 -0.107198 -0.0991787 0.160969 
17554 3 19.6317 8.68088 7.9737 -1.87251 -5.33552 6.13748 
17801 9 19.3812 9.57046 8.10065 0.631894 12.1729 6.30984 
17558 3 19.3121 11.5602 8.35726 -4.15689 -2.02233 -0.0567265 
17552 2 19.7279 7.97853 9.40881 25.1659 57.0312 59.581 
17553 2 19.7446 12.5897 9.5152 42.8207 42.9678 66.7858 
17559 5 21.2085 12.1329 9.83297 6.88516 -0.50626 -10.6255 
17557 5 21.1128 8.33065 9.93016 0.908485 -11.4412 -15.7785 
17556 5 18.49 8.44005 10.194 12.774 -3.48842 -7.00618 
17631 5 18.754 12.2185 10.6826 1.85847 -5.65841 -3.13765 
20084 1 16.8199 10.2664 10.3615 -11.6796 -4.49195 -0.431475 
17566 7 22.7737 6.49197 7.09029 0.0943571 0.0189996 0.0517296 
17525 6 23.2369 6.30614 7.97014 -30.0024 -6.03279 17.2195 
15249 9 26.4199 12.3989 7.50271 0.8438 0.687326 0.252987 
14924 1 28.8784 6.30371 10.2599 25.1197 20.1434 10.8412 
17459 1 22.8153 6.36449 10.4136 -83.7068 -68.2515 32.4902 
17550 1 22.6813 10.1773 10.109 18.7532 17.6972 8.31616 
15248 9 25.0074 7.30471 8.25379 6.71709 8.8824 8.68403 
15002 3 25.5553 12.1132 7.86039 -4.82506 -8.7899 8.97954 
14932 3 25.8534 7.69566 8.37038 -4.62623 -4.21124 1.37474 
15003 4 25.6929 10.0578 9.40228 -9.08749 -5.81633 -23.3487 
15000 2 25.8234 11.5586 9.33827 29.2566 102.365 71.9554 
14927 2 25.9265 8.52626 9.67582 39.9347 66.7489 74.2197 
15005 5 27.2586 12.0307 9.65026 -1.54316 -12.6385 -16.8531 
14933 5 27.3368 8.19806 10.2714 9.45707 -14.0115 -17.4503 
15004 5 24.794 12.1885 10.2281 0.971546 3.09475 -12.7089 
14907 1 29.0423 10.186 10.3202 23.598 18.4617 22.4162 
15008 5 24.7476 8.17989 10.6591 15.7528 -0.136005 -2.32789 
14899 6 29.4402 9.94521 7.67407 -3.23174 0.0361587 5.30762 
17637 7 24.0129 13.1402 7.48134 1.61011 0.648311 -0.200653 
25427 5 0.471403 16.2254 10.9577 5.79347 -3.88382 -5.03375 
25424 5 3.05777 19.7432 10.2643 -15.0533 -6.40776 -10.1352 
25423 5 0.62854 19.9386 10.7649 3.98938 -4.20613 -9.76724 
25422 4 1.53223 17.8586 9.5283 -9.67861 7.06827 -14.4978 
25421 3 1.35286 20.1653 8.46116 -3.23259 -2.56062 -0.112582 
25419 2 1.68921 19.4163 9.80763 -41.478 139.854 66.4765 
25358 5 3.0433 15.9649 10.3935 6.07001 -1.25312 -11.9065 
25352 2 1.62447 16.359 9.9389 56.785 2.98532 38.2997 
25333 1 4.76049 17.9652 10.8964 -4.87331 13.0578 -1.33557 
25357 3 1.27516 15.4524 8.77037 -12.0549 -17.394 19.0132 
25460 9 1.6173 15.8283 7.87293 0.0926713 0.360353 4.23049 
25349 1 4.58657 14.1062 10.6957 7.40847 16.3138 0.672498 
22803 5 6.49129 16.0975 10.8756 1.40884 -0.0345757 0.837536 
22875 5 6.46084 20.071 11.1158 19.9196 7.83082 14.0487 
25459 9 1.48999 13.6574 8.56205 -1.46945 4.85561 -4.07893 
22801 3 7.03055 16.5942 8.55987 -2.18399 -6.9135 4.18941 
2179 7 -0.387305 20.8468 8.22815 14.4407 2.19464 -6.29836 
22805 3 7.32975 19.3599 8.91011 -8.47033 -8.73915 26.1975 
22908 9 7.54595 19.9046 8.12021 0.00556912 0.259632 6.53103 
22774 6 7.84223 14.1301 6.46407 2.07779 1.27414 1.83571 
22907 9 7.21638 17.5067 8.66763 -0.098849 20.2604 1.70816 
22800 2 7.69826 20.1918 10.1825 71.8097 58.4655 36.6586 
22810 7 9.52718 17.6319 7.67339 -2.04586 0.950054 -1.95428 
22775 6 10.3724 17.5576 8.1234 -17.9764 -9.03007 6.34481 
22811 7 11.0269 17.744 7.42304 6.07082 1.05084 -1.13442 
20249 3 13.6146 20.1923 8.5115 -17.4664 -15.9998 19.4377 
22799 2 7.50164 15.6895 9.76752 1.53506 20.6796 69.8208 
20181 4 13.1648 15.598 8.7498 -9.73357 -32.1078 -12.1712 
20250 4 13.59 17.8559 9.69511 -13.7867 6.73989 -26.6225 
20247 2 13.6446 19.4223 9.89672 2.0817 29.1674 65.6491 
20175 2 13.7411 16.3389 9.95052 45.3749 116.854 84.9485 
20255 5 12.7826 16.0392 11.1348 -2.76609 -11.2383 -15.4162 
20251 5 12.5994 19.887 10.8751 -0.904723 -0.256502 11.664 
22797 1 10.5866 17.8329 10.6706 3.39593 -1.46288 25.0511 
22804 5 8.85928 16.0465 10.2629 -4.55914 -10.8511 -13.861 
22806 5 9.15709 19.6726 10.6518 26.3578 -12.7121 -11.5426 
20209 6 12.874 15.0323 5.7533 0.481726 -0.358551 1.5184 
20174 8 12.7095 14.4625 7.54514 27.497 10.8681 -53.5226 
22802 4 7.35344 14.1712 9.46207 -20.9507 9.37653 -28.7151 
22707 1 10.7485 14.2517 10.2767 12.1174 10.6808 -6.89792 
20180 3 10.8086 14.0423 7.95232 18.2085 -8.8418 4.81239 
20260 7 13.0324 18.8856 6.99744 0.127727 1.3321 1.30389 
20261 7 12.9162 17.3666 7.33817 -0.535173 10.6327 5.7298 
20401 7 13.4229 15.9899 5.62814 -0.162478 0.310766 -1.28421 
20406 9 10.0189 14.4108 7.4707 -1.28057 2.84948 -2.30116 
20413 7 11.9327 15.1884 5.26927 -0.0685117 -0.0248464 -0.439695 
20222 6 12.7014 18.0477 6.67459 -0.739734 0.714127 -1.03274 
22813 7 7.7456 15.0607 6.62462 -0.0737139 -0.0489498 0.0672074 
22812 7 7.44152 13.8113 7.30537 0.710686 1.44301 6.56022 
17861 7 18.0327 18.1656 5.18632 -0.0416715 -0.0258105 -0.196032 
17849 7 19.1146 19.332 5.5722 -0.0539658 0.152498 -0.566313 
17657 6 18.7692 18.3451 5.88217 -4.79329 -2.66745 15.2497 
20252 5 14.9691 19.7344 10.5394 -8.28193 -13.3827 -17.2722 
20182 5 15.2166 16.0409 10.213 -4.04033 -20.6302 -13.4592 
17622 8 18.5634 18.0799 7.75046 32.3597 27.9501 -13.2086 
17854 9 15.9449 18.6012 8.0719 -0.303606 2.03197 -3.10276 
17628 3 16.7563 18.0742 8.25458 4.06474 -10.0371 9.28177 
17624 4 19.3217 16.6826 8.46567 -7.84284 -11.5571 -3.66813 
17629 4 18.9827 19.4332 8.85904 -13.8579 -12.3085 1.33344 
17621 2 19.6951 15.6526 9.54627 46.5007 94.6568 80.8901 
17623 2 19.5501 20.2671 10.0023 54.4474 25.1039 74.1306 
17630 5 21.0316 19.7719 10.2793 12.1913 -2.5316 -15.3455 
17627 5 21.1919 15.89 9.96206 1.0404 -17.6652 -16.6968 
20155 1 16.8424 17.9752 10.6946 1.20236 10.6961 -35.1065 
17626 5 18.7672 15.8963 10.7355 -8.58051 -8.73671 -12.9178 
20171 1 16.7158 14.1373 10.3208 5.11973 6.43768 -6.47802 
17625 4 19.606 14.0957 9.12525 -6.09522 7.79455 -11.5068 
17564 7 21.4906 17.2833 7.58657 -0.601885 1.58254 -1.20035 
17703 5 18.6795 20.0258 11.2014 -15.3233 -12.2914 -21.3805 
17709 7 19.905 20.6273 7.34679 2.87719 4.94498 4.40501 
20259 7 15.568 20.8847 8.4035 12.2122 3.55453 -2.11521 
17526 6 22.4132 17.452 7.70597 -7.58274 -6.7482 17.9415 
17563 7 22.8092 16.6576 7.3521 0.264495 0.359781 -1.92395 
17619 1 22.5682 17.9268 10.3236 11.1164 12.6459 -36.3805 
15250 9 25.4259 16.554 7.3496 3.22281 4.18911 70.3815 
15006 3 25.6058 15.7572 7.92658 -17.1722 -12.2112 55.9314 
15072 4 25.3173 20.4252 8.40544 -12.9377 -7.93001 -2.60847 
15073 4 25.9599 17.9542 9.15621 -15.7838 6.0919 -34.7277 
15069 2 25.8295 19.4844 9.52152 47.1492 196.492 66.8082 
15075 5 27.2671 19.8707 9.91392 4.91315 -4.38755 -14.7268 
15001 2 25.8934 16.4473 9.39988 31.3316 21.7191 31.4578 
15007 5 27.2951 15.9854 9.7832 -0.390445 -10.4401 -15.5581 
14980 1 29.1857 17.8209 10.1444 -12.8291 -20.5649 14.9429 
15074 5 24.8028 19.6389 10.6176 -5.99398 -5.41776 -19.4697 
15079 5 24.8396 16.1163 10.4638 8.52534 -3.56585 0.470358 
12533 7 25.4571 18.3754 7.23091 -0.397698 4.46278 6.00261 
17532 1 22.9834 14.1035 10.1761 9.68584 12.4165 8.95029 
14998 1 28.6373 13.9834 10.0874 19.8278 24.8227 13.0683 
12492 6 25.1645 17.9196 6.43544 -1.27455 -1.7116 -0.982199 
12532 7 24.2391 17.8074 6.45162 -0.0706619 0.0108399 -0.214343 
17636 7 24.2982 14.6547 7.77674 3.14906 -4.70174 -4.73675 
17597 6 27.3956 19.7327 6.47718 -16.3714 -1.02646 0.957408 
17635 7 27.0344 19.9354 7.31032 6.34648 1.19178 -2.4641 
17596 6 23.5563 13.9987 7.66239 -11.4047 -1.5771 4.77161 
14974 6 28.7308 14.0837 7.53935 -5.78163 -10.9377 7.38027 
17634 7 26.9707 18.9124 6.11254 0.288705 0.56846 -0.146858 
15084 7 28.6931 18.2675 6.90767 0.598893 2.76892 -1.53823 
15012 7 28.1952 14.867 7.30744 1.77922 1.80346 -1.74429 
15044 6 29.2899 17.8272 7.55162 -18.4737 -15.3084 14.5693 
15011 7 29.5706 14.1102 6.99075 5.05522 0.876652 -0.269654 
25461 9 1.63963 21.1191 8.56579 -0.428071 9.00939 -6.01247 
25417 1 4.459 21.7465 10.9217 -17.2398 -19.9778 -10.2995 
24923 5 0.754769 27.5218 10.9484 5.68496 1.78488 -2.95973 
25425 3 1.35108 22.98 8.77836 -10.6142 -8.38864 18.2068 
24927 5 0.559259 23.61 11.1153 15.5686 -1.53777 7.15505 
25426 5 3.10363 23.8017 10.4009 3.73121 -9.42823 -9.35475 
25420 2 1.64879 23.9265 10.0018 35.3604 98.0296 58.7252 
25401 1 4.97038 25.5329 10.7242 12.6655 4.86404 13.2722 
24924 5 3.18735 27.1766 10.4054 -6.01121 -6.17143 -14.3239 
24922 4 1.38256 25.4386 9.75254 -16.3411 10.4753 -16.7625 
24919 2 1.7823 26.9563 9.95451 0.551799 144.604 60.4104 
24921 3 1.55556 27.7248 8.56562 -3.21521 -0.939282 8.50186 
25462 9 1.60156 23.3783 7.96981 -0.0549891 0.117862 1.81234 
22871 5 6.64021 23.6959 10.9095 4.46585 -4.66094 -5.40003 
25451 9 2.36751 27.8615 8.13061 0.0530097 0.481148 1.54599 
22375 5 6.78156 27.3777 11.2762 1.69263 -4.0042 -4.20963 
20355 9 13.7553 21.1037 8.67011 -2.64272 21.287 -0.833323 
22873 3 7.36095 26.8242 8.94079 -1.62215 -2.91785 22.6505 
22910 9 7.83453 27.1872 8.16884 0.0139668 0.301694 5.19436 
22881 7 10.5673 22.2037 7.78641 0.17705 0.147815 -0.59407 
22880 7 12.0072 21.7432 8.22322 12.0618 4.41951 -4.51369 
22869 3 7.56442 24.0265 8.5961 -0.84142 -1.28987 0.767194 
22842 6 11.0399 21.8185 8.50693 -11.6267 -8.53297 2.4999 
22909 9 7.42422 24.9915 8.72358 -0.321488 9.49106 -0.663613 
22870 4 7.80675 21.6814 9.76784 -10.0028 12.9046 -14.6444 
22781 1 10.8959 21.6885 11.0129 -26.3042 -19.3384 22.5689 
22868 2 7.76545 27.7412 10.1816 38.2391 97.7471 42.5939 
22867 2 7.78902 23.2324 9.92461 54.5845 189.194 73.7248 
22381 7 12.0152 26.341 8.4485 11.0817 9.24499 -1.16537 
20253 3 13.4682 23.4016 8.82795 -29.2689 -27.6248 6.8032 
22380 7 10.8121 26.2531 7.54966 0.0749136 0.106379 0.0967189 
22342 6 11.2091 25.8188 8.3988 -19.4466 -2.80884 29.4693 
20317 3 13.3219 27.8427 9.08682 -10.206 -13.2493 -8.85064 
20248 2 13.7696 24.0294 10.2263 8.03804 5.02638 110.192 
20318 4 13.624 25.5447 10.0164 -29.0195 -19.0957 -43.8358 
20315 2 13.7788 27.0543 10.3348 51.0813 -14.4225 84.2521 
22865 1 10.6865 25.3992 10.9226 12.1244 11.1003 22.8992 
22872 5 9.17462 23.6871 10.462 5.35376 -15.3943 -14.3177 
22874 5 9.24947 27.6706 10.5948 6.59929 -9.76366 -10.7447 
20356 9 12.5954 23.6209 8.49206 10.2739 3.84225 -9.85208 
25431 7 14.1509 26.52 7.83751 1.06412 4.74412 6.70406 
20323 5 12.8525 23.6161 11.429 1.85695 -7.79842 1.62973 
25430 7 14.093 24.9955 7.86813 1.67229 4.71277 10.3697 
25395 6 14.4016 25.7329 7.27378 -0.138749 0.0915999 -0.152797 
20258 7 15.2294 22.3163 8.12146 1.35032 0.121519 -1.33562 
20223 6 16.0015 21.7513 8.2238 -7.31068 -1.25427 8.7692 
20245 1 16.5342 21.695 10.8038 16.2835 20.4128 32.5051 
17698 4 19.4354 21.7483 9.56107 -12.2701 -3.81908 -28.3519 
20320 5 15.2214 27.4242 10.856 4.36203 -11.0568 -15.2008 
20254 5 15.1801 23.5949 10.561 -15.7739 -11.6954 -20.0377 
20329 7 17.2434 26.6466 8.28058 3.99457 3.20562 -3.7018 
20328 7 16.0419 25.8023 7.61998 1.69864 -0.0185602 -0.110977 
17803 9 18.6355 24.4714 8.19816 9.14263 9.19826 -0.706507 
20290 6 16.6573 25.8385 8.42977 -26.9986 -4.72714 8.80793 
17697 3 19.4666 23.9299 8.24968 -7.39433 -15.3563 8.00787 
17701 3 18.7572 27.5768 9.07536 -11.4693 -29.5696 -3.79834 
17695 2 19.6311 23.298 9.64847 1.99093 5.5011 78.4155 
17696 2 19.6976 27.9701 10.2409 33.4963 100.166 92.8041 
17700 5 20.9899 23.6351 10.1729 -17.5341 -7.7836 -19.4271 
17702 5 21.0953 27.3466 10.1236 7.89658 -13.4387 -20.9254 
17699 5 18.7076 23.7838 10.7613 -3.31918 -4.60287 -0.384115 
20229 1 17.0048 25.6018 10.9426 17.2632 15.1117 -45.7146 
17708 7 20.0702 22.1005 7.0657 -0.257437 1.39264 0.804563 
17670 6 20.1319 21.2549 6.64674 -0.718175 0.860241 -1.28614 
17707 7 20.7868 25.2363 7.6314 4.67706 4.91233 -0.0775811 
17706 7 21.1787 26.5559 8.43819 0.131463 6.50861 6.86381 
17671 6 21.5933 25.7538 7.94146 -0.422194 -4.78818 5.23276 
17804 9 18.1596 28.2261 8.79174 4.32428 -0.367278 -2.98695 
15302 9 22.12 22.0167 7.2663 -10.7714 2.28258 -0.638823 
15082 7 28.9341 21.4367 6.98265 -0.122073 1.9103 -3.10407 
15309 7 26.1711 21.1856 5.56242 -0.0513345 0.353014 -0.579531 
15297 7 25.7773 22.9358 5.36905 0.0247088 0.421374 0.0410597 
15076 3 22.8653 21.7306 7.945 5.20144 -10.2901 6.79981 
15105 6 25.4296 21.9972 5.7434 2.51253 2.82159 8.67645 
15067 1 28.5009 21.8246 10.3102 6.76715 13.5123 34.9169 
17603 1 22.8719 21.8054 10.3091 41.5504 31.0747 64.2912 
15070 8 24.6898 21.8654 7.53391 8.6233 22.0947 -5.4487 
15157 7 24.761 24.7113 6.5409 0.0871398 1.41676 -2.15955 
17693 1 22.4585 25.6458 10.3024 35.2114 46.8009 74.9738 
15118 6 24.3516 25.0692 5.80024 0.216364 -0.0156629 -0.084463 
15156 7 23.4675 25.4068 6.08223 0.347922 0.0653885 -0.0138997 
12750 9 28.7793 27.0604 8.02173 -18.1286 -1.32008 -3.55895 
15145 3 25.8709 28.1424 8.32624 -25.0091 -10.0639 24.3665 
15077 4 25.2347 23.1977 8.50469 -14.7727 -21.8724 -11.4812 
15146 4 25.5466 25.6818 9.29943 -7.71434 17.9034 -15.0744 
15143 2 25.8227 27.2278 9.63665 33.5518 57.2322 40.0592 
15071 2 25.6377 24.1622 9.58877 42.3628 137.129 68.5335 
15078 5 27.0823 23.775 9.8664 3.41081 -1.47933 -12.0886 
15148 5 27.2019 27.5255 10.2775 11.433 -13.1567 -15.4121 
15051 1 28.9278 25.6837 10.4438 0.232466 13.3289 34.1252 
15147 5 24.7278 27.7419 10.5663 3.81791 -1.86877 -7.80211 
12524 3 29.1596 26.0649 8.01414 -11.318 -1.247 9.0301 
15045 6 29.2043 21.7754 7.82857 -18.5643 -11.0847 5.05271 
15251 9 25.5134 27.6474 7.63837 -0.0833949 -0.295532 15.5818 
15151 5 24.6677 23.8201 10.7274 -4.85923 -8.38463 -16.2662 
25272 7 0.609233 4.5118 16.127 4.27807 -0.487529 3.12529 
25198 5 4.5419 2.55475 12.6561 -17.6977 -10.6756 -10.4334 
25195 5 4.3158 -1.09258 12.7632 -0.514642 -3.18539 3.93407 
25511 9 -0.0508074 1.10601 16.2072 -9.4049 3.46063 -0.847565 
22635 1 6.05896 0.692999 12.8525 -28.303 -8.70546 -4.85189 
25268 5 2.06322 2.89899 12.9931 0.0121841 -10.8809 -21.7508 
25258 1 0.250924 4.4912 12.7638 -2.13545 -6.30228 9.68304 
25207 1 0.476342 0.786529 13.0733 12.7926 38.6583 23.6675 
25191 2 3.47612 3.03985 13.5769 17.2237 134.693 56.3294 
25263 4 3.57926 4.53329 13.9916 -27.4008 10.0741 -33.494 
25197 4 3.26023 2.0922 14.7531 -12.6837 -28.7131 -10.7037 
25192 4 3.04502 -0.482259 14.848 -5.16187 -2.05369 -0.304971 
25196 3 0.606967 1.06644 15.3933 29.006 -16.8542 11.6723 
25190 8 2.47346 0.928768 15.8143 40.7813 46.8646 23.0921 
25240 6 3.0848 0.87157 17.6161 0.192234 -10.4342 27.5193 
25519 7 3.36086 -0.0383507 18.1158 2.41932 7.77788 6.94852 
25507 7 2.62505 1.43047 18.4031 -0.780885 12.2097 13.5006 
25308 6 -0.0317967 4.59555 15.3774 -18.1223 -7.89051 26.3369 
25270 6 1.74718 4.54717 18.031 -17.4516 4.28554 4.26628 
25310 7 2.00484 5.29849 18.5673 -2.04406 3.99074 0.451242 
22655 1 6.37544 4.67075 12.8239 1.56301 8.20969 0.499282 
25194 5 1.89442 -1.62182 13.1754 -0.644376 -13.0418 -19.4974 
25189 2 3.31878 -1.5892 13.8009 43.2296 134.689 94.7548 
25309 7 2.60406 4.1805 17.7268 12.2426 -0.995524 0.562566 
22683 6 6.06711 1.28666 15.4098 -5.27671 -3.69806 1.48812 
22644 3 6.85948 4.56977 15.2542 21.5717 -11.2258 16.9591 
25472 9 2.03122 3.44016 19.2972 7.27879 16.6771 -92.3901 
22651 7 5.17808 1.77429 15.49 27.0669 5.92965 -2.52689 
22650 7 6.51752 1.44563 16.2334 -1.67346 0.925861 5.08163 
22759 7 5.03243 4.21171 18.3619 2.04265 -0.118208 7.07358 
22959 9 6.24524 4.07387 15.9888 -8.00829 5.10787 1.16724 
22649 6 4.24796 4.26833 16.6652 -33.435 6.77635 -48.375 
22684 7 3.85836 3.5643 16.1372 1.76282 10.5187 4.69362 
22685 7 4.15256 5.09032 16.1257 1.25162 15.4872 9.89087 
20062 7 6.32826 2.5452 18.2569 8.19574 10.3998 -2.15116 
22687 7 6.15244 0.292764 18.919 2.61264 7.0301 -0.858738 
20023 6 6.98546 1.78164 18.1364 -1.25811 9.35435 5.76533 
22717 6 5.53726 4.4504 19.174 -8.39168 -7.35356 3.92722 
22760 7 6.21555 5.05196 18.8175 0.908997 0.697519 -3.49732 
25312 7 -0.156234 5.0097 18.8215 4.81091 0.479252 -0.624482 
20061 7 7.41181 1.70164 19.0296 15.5278 8.66295 16.4937 
20022 6 13.4391 -0.00286478 17.1883 -4.72018 -5.57701 12.2716 
20101 7 8.49547 0.588455 16.9126 4.67192 0.743508 -1.03187 
22931 9 9.49318 -0.813064 15.7457 4.01954 9.35758 -36.4708 
22643 5 10.3472 2.57234 12.1955 -2.8589 -4.35258 -8.96281 
20083 1 12.0539 4.57824 12.2941 11.1889 6.14116 22.6106 
22642 5 7.78438 2.32799 12.6693 -1.77709 -8.02453 -20.2415 
22572 5 10.3915 -1.19034 12.4814 -2.18027 -7.49481 -10.9155 
22647 5 8.01803 -1.15376 13.3887 6.73752 -13.0001 -16.7967 
20029 1 12.4935 0.818447 12.5759 -6.74102 -2.5307 -7.02065 
20095 5 13.8672 2.81253 13.0198 -5.78112 -11.6663 -15.0684 
22637 2 9.23854 2.21284 13.1776 48.1431 -14.1673 70.0504 
22565 2 9.47766 -0.798971 13.6553 35.357 62.048 24.4499 
22641 4 9.6135 0.790931 13.697 -29.0631 -13.2306 -29.4801 
22640 4 9.10375 3.21619 14.2882 -11.1275 -10.9536 -2.02369 
20060 6 11.9906 1.31047 15.1265 -18.6128 -8.01055 7.91136 
20025 7 11.0474 1.29538 15.2046 1.02198 1.37719 -0.320479 
22638 8 8.72085 4.51632 15.4663 27.1282 44.7796 37.9436 
20024 7 12.3083 0.769125 15.8717 4.17729 4.72974 1.04161 
22688 6 9.27689 4.36534 17.2807 -0.0336075 -7.47577 26.4808 
20130 6 9.2609 0.043298 17.2181 -2.40095 -1.614 8.45609 
20016 5 13.8732 -1.10957 13.0216 5.02246 -14.1025 -17.8264 
20100 7 8.83021 -0.539147 17.8525 0.00774314 1.37112 17.6411 
22967 7 9.36521 5.11559 17.9946 -0.682764 -3.14059 -19.4772 
22571 3 9.95412 -1.38908 14.9903 -18.4765 -11.8216 -3.08998 
20135 7 12.2525 0.900287 18.3694 6.67999 3.66984 1.60616 
20134 7 10.6979 0.698389 18.4748 9.93446 4.48033 -1.24754 
22955 7 8.87024 3.52625 17.8712 2.50976 11.3311 22.2295 
20098 7 11.5406 4.96645 18.4145 0.521205 1.04875 -5.63803 
20096 6 11.4755 1.08258 18.9557 -10.396 -12.7483 11.3653 
20379 9 14.1655 1.84626 15.169 8.35684 3.03086 -13.0602 
20064 7 14.0011 -0.519683 16.523 8.25939 6.848 6.01403 
20063 7 13.7893 -0.382066 18.0551 2.98599 8.36941 20.8013 
20131 6 11.6889 5.08418 19.3343 -17.0139 -9.74035 3.759 
20099 7 12.5158 5.62655 19.279 19.2784 6.7202 -3.60253 
20378 9 15.4007 0.0444891 14.8487 -7.85617 119.373 29.8397 
20012 2 15.2359 -1.61828 13.5115 15.8681 -99.6616 79.8003 
17469 5 19.9364 -1.30131 13.4326 -7.24425 -11.5347 -12.8041 
20017 5 16.2815 -1.21496 12.5395 10.6538 -1.01366 -2.84493 
20020 5 16.2894 2.4578 12.6312 -8.40147 -5.66207 -10.4873 
17477 1 18.4308 4.50707 12.7514 44.7853 35.7243 52.0785 
17458 1 18.218 0.637135 12.871 46.1147 33.7539 14.0653 
17464 5 19.9587 2.61017 13.0923 4.17949 -12.3187 -12.6276 
20014 3 15.3481 -0.927596 14.9324 -27.923 -14.8087 38.9946 
20013 2 15.2355 2.86552 13.6686 15.0636 -13.508 66.0016 
20089 4 15.4847 4.41259 13.8828 -18.1921 -3.06658 -23.6056 
17460 2 21.2934 2.30374 13.8302 47.153 72.0621 84.8971 
17386 2 21.2555 -0.760946 14.0881 53.4538 194.332 46.3718 
20019 3 15.115 1.98072 14.9454 -8.48655 -13.8094 -1.42626 
17466 6 17.5887 0.567504 15.3958 -23.9336 -18.0186 17.9663 
17494 7 16.6714 0.376264 15.7064 20.1694 17.6912 -3.90659 
17493 7 17.9318 1.16544 16.072 2.80695 4.08286 -3.07897 
17471 6 18.9888 2.87245 17.1092 8.35016 9.35936 4.48266 
17510 7 19.7215 2.85369 17.7532 -0.793605 -0.934673 3.53441 
17509 7 18.3608 2.15854 17.5497 6.82168 13.1698 4.99544 
17463 4 21.2166 0.803669 14.1626 -7.36903 8.10779 -23.4262 
17508 6 18.0928 4.90238 15.1716 -24.8959 -9.04629 3.95509 
14959 7 21.3464 0.665638 18.2219 0.426958 6.78087 0.564375 
14960 7 21.6162 1.21695 16.9708 -1.46715 7.55083 -2.86553 
17391 3 21.5093 -1.41541 15.4732 -13.5714 -29.2506 -5.6666 
17825 9 21.5042 -0.696991 16.1389 -1.90514 4.36966 -3.78744 
17462 3 21.3364 3.06845 15.2093 -16.675 -18.3332 37.3285 
14918 6 21.807 0.364295 17.3988 -6.2803 -16.2615 -1.66334 
17826 9 20.4284 3.21436 15.5128 14.6373 8.45135 32.7399 
17582 7 18.4256 4.37144 18.5657 5.37812 2.07307 -1.50251 
17472 7 18.3687 4.59665 16.0818 2.84041 7.36529 4.00476 
17473 7 17.1867 4.58213 15.1809 5.66345 1.35984 -1.98425 
17827 9 21.7033 5.09749 15.206 2.33087 27.2073 4.56608 
17544 6 17.8399 5.04254 18.9524 -10.87 -2.83308 -0.261893 
17474 7 17.3613 -1.62184 15.6663 11.5732 -4.2258 -5.38407 
17457 7 17.0383 0.0533424 18.173 4.46741 2.07056 -1.10739 
17503 6 17.3998 0.760035 18.8005 -21.5674 -1.96026 27.557 
17456 7 16.5893 1.25544 19.0009 11.8159 5.68469 -3.77933 
14905 7 22.4472 5.26298 18.7964 1.22407 -4.45147 -4.09358 
20009 7 10.7127 -1.85476 19.2305 14.8691 -4.13641 -2.56433 
20366 9 14.8188 2.66506 19.1017 -0.174223 2.46185 46.6988 
12371 7 29.3641 4.0703 16.1686 19.8765 9.29052 0.321111 
14951 6 23.0337 4.526 19.0512 -27.6238 -13.8856 -5.04933 
15310 7 26.779 0.103914 16.54 -3.57381 1.39502 -23.7902 
14904 7 23.4619 4.38864 18.21 0.682704 -0.396438 -2.5675 
17392 5 22.3788 -1.113 13.0479 11.1006 -0.0833199 5.7282 
14833 2 27.436 -1.7351 13.7653 10.2373 -142.105 71.9223 