ITEM: TIMESTEP
20000
ITEM: NUMBER OF ATOMS
25520
ITEM: BOX BOUNDS pp pp ff
-3.8959205201285124e-01 6.0088135642019459e+01
-1.9452389155355383e+00 5.9115524189537531e+01
-1.2206056431032383e+01 1.1390111600702880e+02
ITEM: ATOMS id type x y z v_stressx v_stressy v_stressz 
25292 7 5.89857 3.03966 7.5916 -2.48011 -8.51558 -6.25204 
25293 7 5.98077 1.53035 7.7064 -1.90307 -5.92522 -1.94518 
25252 6 5.35811 2.25094 7.51796 -6.34541 -3.23116 0.240773 
25287 5 0.61597 0.755495 10.7564 7.69714 -1.45022 5.06968 
25283 5 2.94291 4.2301 9.842 11.35 6.66629 -12.9839 
25281 4 1.3887 2.44216 9.07367 -13.2624 2.16718 -17.0881 
25280 4 1.07853 5.00258 8.46007 -12.6048 -8.47366 -6.73235 
25277 2 1.45655 3.94107 9.49571 50.5724 38.8451 80.1042 
25215 5 2.99957 0.588718 9.72621 -14.4337 -9.85708 -12.0623 
25209 2 1.59287 0.935181 9.44522 5.85432 -57.3781 74.463 
25188 1 4.8243 2.58953 9.97468 5.37371 1.39608 14.6973 
25214 3 0.796635 0.0137284 8.44439 -1.83349 -4.21924 2.00313 
25282 5 0.520916 4.37471 10.6565 -15.1121 -14.318 -18.6873 
25458 9 1.40812 -0.435335 7.83607 0.0131358 2.06237 1.68521 
25206 1 4.52732 -1.17961 10.115 34.5979 37.8645 21.0709 
22660 5 6.52822 0.875659 10.2203 -1.18988 -5.28377 -15.475 
22735 5 6.623 4.87348 10.5536 2.4922 -9.11656 -15.3608 
25505 7 1.83983 5.65447 5.50835 -0.0554236 -0.158665 -0.296057 
22662 3 7.17647 4.29529 8.22411 -11.8863 -23.0484 -18.1472 
22658 3 7.30314 0.346889 7.89736 -14.8938 -15.0843 -11.3034 
22905 9 7.65252 -0.485879 7.46068 0.0191058 -0.420311 -4.49355 
22906 9 7.50322 4.57024 7.35908 -2.81722 4.25608 9.57426 
20115 7 11.1372 2.292 6.49758 0.439672 -0.0110011 -1.16525 
22656 2 7.7059 0.365729 9.40584 22.0328 73.2929 63.7885 
20116 7 12.1136 2.88755 7.40659 19.5674 6.64804 2.53353 
20078 6 11.1398 2.86581 7.23657 -15.7638 -11.5255 2.03069 
20106 3 13.741 4.72985 7.46261 -15.4423 -10.8209 42.6753 
22657 2 7.60419 5.1024 9.41016 53.6958 -16.4452 21.648 
20036 3 13.619 0.47741 7.57109 -16.2337 -19.3428 17.0026 
20107 4 13.6664 2.6833 8.8298 -17.7433 -14.0697 -33.656 
20104 2 13.8784 4.18168 8.97251 30.9603 36.2789 94.3519 
20031 2 13.7132 1.1448 8.96008 61.067 163.074 11.9862 
20108 5 12.6966 4.70757 9.81807 14.7929 11.9753 1.54841 
20112 5 12.4932 0.846951 9.91178 11.1119 -0.256641 10.1164 
22654 1 10.4859 2.78478 9.68506 10.6359 9.72252 11.5262 
22661 5 9.03983 1.11007 9.56315 -7.44289 -6.34658 -16.4947 
22663 5 9.10858 4.7108 9.73761 4.47793 -12.8556 -15.3805 
22563 1 10.886 -1.13469 10.1589 0.05826 -1.06853 -3.38866 
22659 4 7.7627 -1.12896 9.68153 -9.32102 -34.7437 -35.2193 
22629 6 11.3751 -1.065 7.76545 -16.699 5.15415 2.71918 
22669 7 11.9249 -0.207968 7.44815 1.27685 5.17849 -1.33447 
20352 9 13.8605 1.22514 6.87465 0.666137 12.509 14.6447 
20189 7 14.2777 3.18994 6.51456 0.234814 13.4871 8.36349 
20353 9 14.543 5.23857 7.22704 7.70139 13.1556 16.7418 
20148 6 14.5671 2.45013 5.87332 0.146215 0.0587562 0.0985631 
22740 7 11.2703 5.5881 6.8279 3.27024 1.45893 -1.18765 
22738 7 8.76742 5.41578 5.90114 -0.704707 0.680273 -1.35988 
22701 6 7.85394 5.37142 5.69312 0.544382 -0.258459 7.89074 
22739 7 7.886 4.86164 4.87022 -0.0114688 0.0201225 0.00844172 
22670 7 11.9327 -1.89861 7.72342 1.02765 1.61781 -5.3513 
20188 7 15.4435 2.20345 6.22553 0.807258 -0.141178 0.0749193 
20037 5 15.0057 0.565552 9.66218 -0.860957 -6.70775 -12.8163 
20118 7 17.8719 2.63796 7.70159 5.63714 -0.363912 -2.92119 
20117 7 17.6995 1.17882 7.44002 2.99561 2.51808 -4.75172 
17799 9 19.455 -0.241526 7.33338 0.272511 6.57102 17.7816 
20077 6 17.1284 2.01775 7.60787 -23.0751 2.53777 26.802 
17484 3 19.536 4.02271 8.03155 -4.08582 -2.49703 -2.32334 
20109 5 15.1822 4.68195 9.53593 -5.73294 -7.27682 -17.4271 
17480 3 19.3808 0.510653 7.95906 -16.3356 -31.8879 11.1478 
17478 2 19.7385 0.13463 9.405 32.5017 34.0349 48.5081 
17479 2 19.7269 4.90401 9.32133 45.07 112.67 59.6907 
17485 5 21.0972 4.45706 9.83859 4.85538 -16.0174 -17.0003 
17483 5 21.125 0.57616 9.92672 5.22052 -9.6691 -13.4133 
17482 5 18.7273 0.612358 10.4453 1.11939 -3.38815 -6.44945 
17560 5 18.5746 4.39351 10.2378 -0.82312 1.65446 -11.4223 
20011 1 16.7883 2.43064 10.1919 50.4339 45.4805 48.9855 
20028 1 16.5417 -1.33752 10.1131 23.3363 17.3856 9.98297 
17481 4 19.613 -1.37684 9.30614 -12.3574 -19.7627 -37.3613 
17800 9 20.2785 3.41394 7.96437 0.274711 -2.91342 -5.50023 
20002 6 16.2002 -1.21507 7.53432 -10.3661 -7.35794 14.0521 
20044 7 15.5857 -0.449442 7.68688 4.26305 8.49259 -3.19542 
20043 7 16.3516 -1.12082 6.60323 0.2797 0.195561 -0.846618 
17377 6 19.8786 -1.6773 6.3322 0.251059 -0.136644 -0.0106106 
17415 7 20.5742 -1.92657 6.98281 2.80899 2.4517 1.98158 
14864 7 23.6314 3.83266 7.75133 5.56683 -4.71045 -1.53198 
14825 6 23.2988 2.969 7.82153 -9.26106 -3.75896 1.56209 
14863 7 24.1611 2.53617 7.90018 3.85472 -1.36203 -0.658869 
17476 1 22.5994 2.5974 10.2549 -65.3473 -40.9 59.6445 
14928 3 25.5679 4.59148 8.20809 -30.9905 -50.1086 -47.1489 
15246 9 24.7065 0.00657495 8.04332 7.90551 10.6811 19.8431 
14856 3 25.5405 0.383335 8.16649 -12.4198 -14.5934 11.1348 
14929 4 25.6618 2.47021 9.27814 -17.1943 -35.0821 -33.2238 
14851 2 25.7726 0.935136 9.6021 18.2834 -190.708 71.903 
14926 2 25.8313 3.99121 9.61155 26.535 145.445 89.2889 
14857 5 27.172 0.513951 10.0212 -9.49758 -11.7965 -20.4657 
14931 5 27.2703 4.30837 10.1061 -28.195 -11.3787 -18.2122 
14832 1 28.9014 2.41808 10.4207 14.3885 11.9137 42.7574 
14930 5 24.8007 4.37565 10.6576 12.8721 -4.39895 -13.595 
14934 5 24.7275 0.511689 10.6576 4.83732 -3.7539 -0.97752 
17384 1 22.8636 -1.16741 10.5973 -2.20736 4.27722 -15.9935 
14848 1 28.7231 -1.43222 10.2624 14.5649 18.4163 -6.49571 
14898 6 29.1786 2.45721 7.88738 -13.6162 -15.1807 6.43015 
15247 9 26.3681 4.66526 7.72718 -1.62172 -1.09243 -15.3059 
14826 6 28.1456 -1.3901 7.71182 1.43601 -3.2145 26.9938 
14861 7 27.5228 -0.59177 7.7367 4.97626 5.81931 -2.33732 
14862 7 28.7608 -1.17174 6.9734 0.154454 0.0368189 -0.066252 
17565 7 23.8543 5.62398 7.62904 12.4898 3.72778 -1.64813 
17491 7 23.3409 -0.830267 7.25909 0.0945166 0.0675664 -0.452924 
12347 6 29.4782 5.3719 8.00631 -15.1688 -7.15283 4.32112 
14939 7 29.2544 3.33895 7.63004 0.441046 -0.931097 -1.22648 
17492 7 24.1978 -1.77871 8.08715 8.16096 2.32731 -6.3617 
17450 6 23.2929 -1.42611 8.02021 -21.4862 -6.65512 19.1913 
25291 7 5.22591 6.53661 7.32751 1.15615 1.63552 -3.25779 
25290 7 3.82687 6.55555 6.86919 -0.710943 1.66818 -4.45998 
25253 6 4.33607 6.71227 7.63615 -9.47214 -11.5264 2.42925 
25517 7 1.84279 7.29014 5.50902 -0.0277999 -0.0574251 -0.552198 
25313 6 1.21101 6.45671 5.78137 6.12266 -5.41247 30.3562 
25362 7 1.19888 10.608 6.31952 -0.020684 -0.0224313 -0.0189131 
25275 1 4.36027 6.50413 10.1833 4.22791 12.7869 11.9847 
25278 8 0.639374 6.49188 7.63496 52.786 32.2387 9.37249 
22958 9 3.89074 10.3239 7.2783 -3.52099 1.47228 0.220021 
22732 3 4.70032 10.3548 7.96195 2.60982 -12.5258 13.9687 
25359 5 0.701437 8.49354 11.0939 -9.51488 -10.2995 -16.7534 
25356 5 3.08021 12.146 10.2169 9.99193 0.15439 -12.8195 
25355 5 0.535314 12.2845 10.6518 -2.50405 -5.26387 -7.68255 
25354 4 1.48185 10.2856 9.54639 -13.5218 14.1872 -25.9956 
25353 3 1.39194 12.6945 8.41831 -12.8884 -7.81757 4.95388 
25351 2 1.63225 11.8296 9.72046 40.8768 48.9552 65.7548 
25286 5 2.93236 8.28049 10.0288 -5.4465 -15.981 -18.834 
25285 4 0.892127 7.85648 8.74192 -20.5805 -18.4449 -4.20138 
25279 2 1.49492 8.71367 9.83417 15.0092 96.9674 75.1778 
25259 1 4.86194 10.2149 10.3927 8.34733 9.05765 62.0158 
25327 6 1.60703 9.7444 6.34125 2.40198 1.47791 -0.869766 
25363 7 1.38635 9.50649 7.2315 0.452525 2.59895 1.49856 
22807 5 6.5607 12.2849 10.8694 -15.7253 -14.1488 -17.7478 
22730 5 6.65234 8.34528 10.5398 -4.65052 -14.8076 -14.0731 
22726 8 6.48614 10.4372 7.49213 -1.97872 17.7976 -26.6399 
22761 6 7.05704 10.8316 5.66761 1.80484 2.54549 6.84016 
22733 4 6.9844 11.7221 8.61372 -10.7793 -12.6364 -2.40973 
15312 7 27.0533 22.3781 16.9283 1.94906 8.67833 7.02091 
22728 4 7.23016 9.05362 8.29312 -12.78 -20.1838 -5.58666 
22953 7 7.91026 10.1976 5.3838 -0.0669932 0.0990468 -0.652912 
22965 7 7.33207 11.8331 5.45166 -0.0497254 0.14085 -0.277916 
22741 7 11.5 7.01103 7.05421 2.59253 -0.0506794 -1.54568 
22700 6 10.8104 6.36788 7.23855 -15.9938 -1.89972 18.3215 
22636 1 10.9188 6.69179 9.82281 3.70985 8.63393 12.0128 
22729 4 7.48133 6.61374 9.11192 -11.0199 -8.06581 -27.0637 
22668 7 10.5831 8.59932 7.42923 1.87769 4.3081 -3.18343 
22725 2 7.70374 8.13304 9.39568 26.0952 31.0136 95.9728 
22727 2 7.53968 12.6129 9.75953 15.8574 132.115 79.334 
22630 6 10.7174 9.56513 7.55044 -8.11341 0.80831 5.34566 
22667 7 11.6785 9.56 7.58776 1.2472 0.717555 -1.31932 
20110 3 13.3722 8.00482 7.87861 -10.7607 -0.960644 -3.92653 
20176 4 13.3404 12.979 8.33811 -6.49504 -6.88746 -4.17034 
20177 4 13.5478 10.5013 8.95979 -6.11066 -0.305472 -16.7459 
20173 2 13.7057 11.9908 9.40771 32.5727 -5.67133 78.2431 
20105 2 13.7244 8.93675 9.12343 -3.00876 6.27895 85.4928 
20178 5 12.5598 12.2564 10.4158 -8.05072 -12.4078 -22.5864 
20183 5 12.8988 8.51128 10.3587 -3.5936 -10.8999 -6.69285 
22734 5 8.97942 12.4092 10.1072 -12.2349 -12.3356 -17.6411 
22723 1 10.5486 10.4168 9.97488 -3.00767 4.1588 10.453 
22731 5 9.11607 8.33188 9.85191 -15.3752 -24.2359 -22.0616 
20354 9 13.8366 7.1662 8.02076 -1.248 -12.4353 -25.4388 
17489 7 15.3685 7.53149 7.27379 -6.2429 -2.31479 -3.80879 
17490 7 16.4114 7.08597 6.51817 -0.226006 0.0319013 -0.312978 
17451 6 15.9423 6.78743 7.29642 -18.5749 -16.9059 17.7348 
17555 4 19.5148 6.40419 9.24816 -10.4987 2.45678 -18.201 
20102 1 16.4765 6.46221 9.86905 10.9693 0.285361 18.8352 
20179 5 15.0791 12.3713 9.86379 2.88003 3.8685 -11.7079 
20111 5 15.0953 8.51182 9.52882 -26.3944 -13.814 -15.3066 
17802 9 19.4832 11.878 7.51898 -0.111234 -0.101297 0.165069 
17554 3 19.6317 8.68088 7.9737 -1.82571 -5.28975 6.05274 
17801 9 19.3812 9.57046 8.10065 0.592791 12.1592 6.45223 
17558 3 19.3121 11.5602 8.35726 -3.99613 -2.05891 -0.559508 
17552 2 19.7279 7.97853 9.40881 23.5695 57.2073 59.5723 
17553 2 19.7446 12.5897 9.5152 41.971 42.9209 68.0341 
17559 5 21.2085 12.1329 9.83297 6.9532 -0.501998 -10.9007 
17557 5 21.1128 8.33065 9.93016 1.11734 -11.2988 -15.8902 
17556 5 18.49 8.44005 10.194 12.7156 -3.73239 -7.0037 
17631 5 18.754 12.2185 10.6826 2.22044 -5.35059 -3.34912 
20084 1 16.8199 10.2664 10.3615 -11.0476 -4.52421 -1.01081 
17566 7 22.7737 6.49197 7.09029 0.0934188 0.0178215 0.0497606 
17525 6 23.2369 6.30614 7.97014 -29.8347 -5.82209 17.3624 
15249 9 26.4199 12.3989 7.50271 0.836654 0.682762 0.258778 
14924 1 28.8784 6.30371 10.2599 25.1263 19.5782 12.0495 
17459 1 22.8153 6.36449 10.4136 -83.2369 -68.2245 34.9827 
17550 1 22.6813 10.1773 10.109 18.9893 17.5379 8.76787 
15248 9 25.0074 7.30471 8.25379 6.71105 8.84147 8.74431 
15002 3 25.5553 12.1132 7.86039 -4.72834 -8.68348 9.0529 
14932 3 25.8534 7.69566 8.37038 -4.58161 -4.16317 1.34118 
15003 4 25.6929 10.0578 9.40228 -8.81664 -5.76392 -23.3543 
15000 2 25.8234 11.5586 9.33827 28.0649 101.533 71.1466 
14927 2 25.9265 8.52626 9.67582 38.5527 65.9917 74.3699 
15005 5 27.2586 12.0307 9.65026 -1.34781 -12.5185 -16.8868 
14933 5 27.3368 8.19806 10.2714 9.63505 -13.9034 -17.5618 
15004 5 24.794 12.1885 10.2281 0.984519 2.99095 -13.7832 
14907 1 29.0423 10.186 10.3202 23.5387 18.2788 22.4619 
15008 5 24.7476 8.17989 10.6591 15.8355 -0.12616 -2.42867 
14899 6 29.4402 9.94521 7.67407 -3.21171 0.0824738 5.34181 
17637 7 24.0129 13.1402 7.48134 1.60558 0.641034 -0.213546 
25427 5 0.471403 16.2254 10.9577 6.24115 -3.58712 -4.09676 
25424 5 3.05777 19.7432 10.2643 -15.03 -6.15192 -9.72506 
25423 5 0.62854 19.9386 10.7649 3.73931 -4.25511 -11.4287 
25422 4 1.53223 17.8586 9.5283 -9.69824 7.26503 -14.0165 
25421 3 1.35286 20.1653 8.46116 -3.19704 -2.56141 -0.0659393 
25419 2 1.68921 19.4163 9.80763 -41.0289 138.896 65.6955 
25358 5 3.0433 15.9649 10.3935 6.16964 -1.03162 -11.4573 
25352 2 1.62447 16.359 9.9389 56.4325 1.80446 34.6166 
25333 1 4.76049 17.9652 10.8964 -5.28579 13.0994 -10.8037 
25357 3 1.27516 15.4524 8.77037 -12.2424 -17.5909 19.3426 
25460 9 1.6173 15.8283 7.87293 0.0942994 0.360756 4.27256 
25349 1 4.58657 14.1062 10.6957 7.23546 16.1719 1.72562 
22803 5 6.49129 16.0975 10.8756 0.995408 -0.976427 3.12528 
22875 5 6.46084 20.071 11.1158 20.6999 8.48223 8.93115 
25459 9 1.48999 13.6574 8.56205 -1.06447 5.19109 -4.34169 
22801 3 7.03055 16.5942 8.55987 -2.08092 -6.89433 4.191 
2179 7 -0.387305 20.8468 8.22815 14.3225 2.16174 -6.44642 
22805 3 7.32975 19.3599 8.91011 -8.26601 -8.4827 26.0641 
22908 9 7.54595 19.9046 8.12021 0.00372763 0.259345 6.55237 
22774 6 7.84223 14.1301 6.46407 2.09384 1.34436 1.91521 
22907 9 7.21638 17.5067 8.66763 -0.159827 20.2111 1.66653 
22800 2 7.69826 20.1918 10.1825 71.1009 57.1231 36.8043 
22810 7 9.52718 17.6319 7.67339 -2.06253 0.925023 -2.04047 
22775 6 10.3724 17.5576 8.1234 -17.9374 -8.84003 6.68137 
22811 7 11.0269 17.744 7.42304 6.05342 1.009 -1.36254 
20249 3 13.6146 20.1923 8.5115 -17.21 -15.6562 19.6851 
22799 2 7.50164 15.6895 9.76752 0.107703 20.6168 68.7981 
20181 4 13.1648 15.598 8.7498 -9.47646 -31.8762 -11.6331 
20250 4 13.59 17.8559 9.69511 -13.5827 6.73353 -27.5848 
20247 2 13.6446 19.4223 9.89672 2.03163 28.6128 69.3479 
20175 2 13.7411 16.3389 9.95052 43.8753 116.144 89.8857 
20255 5 12.7826 16.0392 11.1348 -2.70777 -11.3965 -16.7691 
20251 5 12.5994 19.887 10.8751 -0.381773 -0.106244 6.25529 
22797 1 10.5866 17.8329 10.6706 3.57499 -1.43742 22.4567 
22804 5 8.85928 16.0465 10.2629 -4.5907 -11.074 -14.4481 
22806 5 9.15709 19.6726 10.6518 26.2835 -12.3147 -11.3431 
20209 6 12.874 15.0323 5.7533 0.493333 -0.3468 1.5272 
20174 8 12.7095 14.4625 7.54514 27.1038 10.7172 -54.3119 
22802 4 7.35344 14.1712 9.46207 -20.5749 9.43162 -28.1723 
22707 1 10.7485 14.2517 10.2767 11.65 10.4444 -22.7885 
20180 3 10.8086 14.0423 7.95232 18.2297 -8.73175 4.96727 
20260 7 13.0324 18.8856 6.99744 0.123334 1.3215 1.21853 
20261 7 12.9162 17.3666 7.33817 -0.59844 10.5409 5.32388 
20401 7 13.4229 15.9899 5.62814 -0.164121 0.310799 -1.28416 
20406 9 10.0189 14.4108 7.4707 -1.29236 2.79724 -2.46 
20413 7 11.9327 15.1884 5.26927 -0.0687638 -0.0249623 -0.439525 
20222 6 12.7014 18.0477 6.67459 -0.733914 0.731294 -0.909907 
22813 7 7.7456 15.0607 6.62462 -0.0748885 -0.0535863 0.063141 
22812 7 7.44152 13.8113 7.30537 0.695354 1.39399 6.54567 
17861 7 18.0327 18.1656 5.18632 -0.0416792 -0.0259183 -0.195339 
17849 7 19.1146 19.332 5.5722 -0.0537981 0.151814 -0.566308 
17657 6 18.7692 18.3451 5.88217 -4.79236 -2.62483 15.2106 
20252 5 14.9691 19.7344 10.5394 -8.05735 -13.6165 -18.1658 
20182 5 15.2166 16.0409 10.213 -3.85191 -20.5857 -14.5851 
17622 8 18.5634 18.0799 7.75046 31.943 27.8451 -14.5378 
17854 9 15.9449 18.6012 8.0719 -0.363224 1.98836 -3.35404 
17628 3 16.7563 18.0742 8.25458 4.22561 -9.89571 9.82957 
17624 4 19.3217 16.6826 8.46567 -7.70606 -11.51 -3.55029 
17629 4 18.9827 19.4332 8.85904 -13.5274 -12.1873 1.78896 
17621 2 19.6951 15.6526 9.54627 45.5039 94.9758 81.9228 
17623 2 19.5501 20.2671 10.0023 52.2524 24.5325 76.6061 
17630 5 21.0316 19.7719 10.2793 12.5998 -2.40657 -16.03 
17627 5 21.1919 15.89 9.96206 1.27022 -17.7943 -17.0085 
20155 1 16.8424 17.9752 10.6946 2.02722 10.4658 -22.4339 
17626 5 18.7672 15.8963 10.7355 -8.72085 -8.903 -13.1752 
20171 1 16.7158 14.1373 10.3208 5.14402 6.45089 -19.4078 
17625 4 19.606 14.0957 9.12525 -5.86152 8.0128 -11.518 
17564 7 21.4906 17.2833 7.58657 -0.609982 1.5583 -1.22536 
17703 5 18.6795 20.0258 11.2014 -15.4384 -12.3698 -21.8113 
17709 7 19.905 20.6273 7.34679 2.88528 4.90853 4.3724 
20259 7 15.568 20.8847 8.4035 12.1015 3.4637 -2.45208 
17526 6 22.4132 17.452 7.70597 -7.47202 -6.63944 18.0459 
17563 7 22.8092 16.6576 7.3521 0.241175 0.337766 -1.97228 
17619 1 22.5682 17.9268 10.3236 11.4415 12.4267 -5.32393 
15250 9 25.4259 16.554 7.3496 3.18023 4.14215 70.3501 
15006 3 25.6058 15.7572 7.92658 -17.0543 -12.066 55.9111 
15072 4 25.3173 20.4252 8.40544 -12.8885 -7.78467 -3.07668 
15073 4 25.9599 17.9542 9.15621 -15.5947 6.30894 -35.0459 
15069 2 25.8295 19.4844 9.52152 46.6541 195.935 68.0971 
15075 5 27.2671 19.8707 9.91392 5.16476 -4.04818 -14.323 
15001 2 25.8934 16.4473 9.39988 30.8563 21.6352 33.1621 
15007 5 27.2951 15.9854 9.7832 -0.354362 -10.4433 -15.9071 
14980 1 29.1857 17.8209 10.1444 -13.3297 -20.9903 15.8417 
15074 5 24.8028 19.6389 10.6176 -6.03122 -5.06202 -19.3979 
15079 5 24.8396 16.1163 10.4638 8.76972 -3.42661 0.0698351 
12533 7 25.4571 18.3754 7.23091 -0.485176 4.38501 5.9751 
17532 1 22.9834 14.1035 10.1761 9.79677 12.103 9.13631 
14998 1 28.6373 13.9834 10.0874 19.8817 24.7932 13.7991 
12492 6 25.1645 17.9196 6.43544 -1.25042 -1.69668 -0.925847 
12532 7 24.2391 17.8074 6.45162 -0.0752522 0.00761235 -0.229329 
17636 7 24.2982 14.6547 7.77674 3.10512 -4.7897 -4.80293 
17597 6 27.3956 19.7327 6.47718 -16.1877 -0.902357 1.03387 
17635 7 27.0344 19.9354 7.31032 6.25913 1.12951 -2.28905 
17596 6 23.5563 13.9987 7.66239 -11.3505 -1.47316 4.89246 
14974 6 28.7308 14.0837 7.53935 -5.71803 -10.8443 7.38603 
17634 7 26.9707 18.9124 6.11254 0.284982 0.566339 -0.1523 
15084 7 28.6931 18.2675 6.90767 0.577409 2.75022 -1.49993 
15012 7 28.1952 14.867 7.30744 1.76922 1.78393 -1.75917 
15044 6 29.2899 17.8272 7.55162 -18.3138 -15.0974 14.3058 
15011 7 29.5706 14.1102 6.99075 5.04297 0.859076 -0.275905 
25461 9 1.63963 21.1191 8.56579 -0.466985 8.99308 -6.06444 
25417 1 4.459 21.7465 10.9217 -17.2678 -19.9666 -45.4125 
24923 5 0.754769 27.5218 10.9484 5.9573 1.9311 -2.83959 
25425 3 1.35108 22.98 8.77836 -10.385 -8.1223 18.6571 
24927 5 0.559259 23.61 11.1153 15.9512 -1.33347 8.25184 
25426 5 3.10363 23.8017 10.4009 3.634 -9.46831 -9.63872 
25420 2 1.64879 23.9265 10.0018 34.9673 97.6273 59.0175 
25401 1 4.97038 25.5329 10.7242 11.9426 4.77068 5.77836 
24924 5 3.18735 27.1766 10.4054 -6.08816 -6.02509 -14.3038 
24922 4 1.38256 25.4386 9.75254 -16.2909 10.4058 -16.7459 
24919 2 1.7823 26.9563 9.95451 0.513385 143.742 60.2746 
24921 3 1.55556 27.7248 8.56562 -3.18455 -0.849943 8.50736 
25462 9 1.60156 23.3783 7.96981 -0.0576037 0.116661 1.80793 
22871 5 6.64021 23.6959 10.9095 4.98809 -4.92563 -4.68698 
25451 9 2.36751 27.8615 8.13061 0.0493187 0.477157 1.54418 
22375 5 6.78156 27.3777 11.2762 2.25308 -3.81998 -3.44805 
20355 9 13.7553 21.1037 8.67011 -2.70524 21.2091 -0.706027 
22873 3 7.36095 26.8242 8.94079 -1.55343 -2.7024 22.4076 
22910 9 7.83453 27.1872 8.16884 0.0151867 0.297474 5.21007 
22881 7 10.5673 22.2037 7.78641 0.171831 0.143997 -0.597103 
22880 7 12.0072 21.7432 8.22322 12.0707 4.36618 -4.54315 
22869 3 7.56442 24.0265 8.5961 -0.817049 -1.2598 0.728327 
22842 6 11.0399 21.8185 8.50693 -11.5282 -8.32163 2.69607 
22909 9 7.42422 24.9915 8.72358 -0.356082 9.44138 -0.62354 
22870 4 7.80675 21.6814 9.76784 -9.51215 13.1909 -14.3665 
22781 1 10.8959 21.6885 11.0129 -26.3017 -19.5236 15.0425 
22868 2 7.76545 27.7412 10.1816 37.4765 97.739 41.3309 
22867 2 7.78902 23.2324 9.92461 52.5839 189.651 71.51 
22381 7 12.0152 26.341 8.4485 11.0053 9.09995 -1.43005 
20253 3 13.4682 23.4016 8.82795 -29.227 -27.5873 5.88639 
22380 7 10.8121 26.2531 7.54966 0.0731405 0.104646 0.0986341 
22342 6 11.2091 25.8188 8.3988 -19.2545 -2.55744 29.9248 
20317 3 13.3219 27.8427 9.08682 -9.99598 -12.8531 -7.79028 
20248 2 13.7696 24.0294 10.2263 7.0025 4.11816 112.689 
20318 4 13.624 25.5447 10.0164 -28.8273 -19.1815 -44.1874 
20315 2 13.7788 27.0543 10.3348 50.194 -15.0024 81.7523 
22865 1 10.6865 25.3992 10.9226 12.4768 11.1865 16.8262 
22872 5 9.17462 23.6871 10.462 5.44652 -15.461 -14.0413 
22874 5 9.24947 27.6706 10.5948 6.91784 -9.6521 -10.0192 
20356 9 12.5954 23.6209 8.49206 10.2811 3.85175 -9.75628 
25431 7 14.1509 26.52 7.83751 1.04349 4.70813 6.76892 
20323 5 12.8525 23.6161 11.429 2.55945 -7.73933 1.3163 
25430 7 14.093 24.9955 7.86813 1.63453 4.66606 10.3818 
25395 6 14.4016 25.7329 7.27378 -0.137122 0.0939358 -0.158547 
20258 7 15.2294 22.3163 8.12146 1.31135 0.103268 -1.45472 
20223 6 16.0015 21.7513 8.2238 -7.15201 -1.15179 9.29447 
20245 1 16.5342 21.695 10.8038 16.7713 20.3114 29.4106 
17698 4 19.4354 21.7483 9.56107 -11.8474 -3.62172 -28.1248 
20320 5 15.2214 27.4242 10.856 4.60095 -11.0786 -14.5766 
20254 5 15.1801 23.5949 10.561 -15.6804 -11.4161 -20.6985 
20329 7 17.2434 26.6466 8.28058 3.99345 3.19016 -3.671 
20328 7 16.0419 25.8023 7.61998 1.69594 -0.0230751 -0.0913681 
17803 9 18.6355 24.4714 8.19816 9.09527 9.16638 -0.792722 
20290 6 16.6573 25.8385 8.42977 -26.9316 -4.59345 8.76086 
17697 3 19.4666 23.9299 8.24968 -7.15198 -15.1502 8.23948 
17701 3 18.7572 27.5768 9.07536 -11.2703 -29.3349 -3.19497 
17695 2 19.6311 23.298 9.64847 0.875345 4.41586 76.1261 
17696 2 19.6976 27.9701 10.2409 33.223 99.3453 93.0743 
17700 5 20.9899 23.6351 10.1729 -17.2499 -7.52794 -18.9423 
17702 5 21.0953 27.3466 10.1236 7.92548 -13.2883 -21.2894 
17699 5 18.7076 23.7838 10.7613 -3.25957 -4.32367 0.0312651 
20229 1 17.0048 25.6018 10.9426 18.1846 14.7578 -18.4287 
17708 7 20.0702 22.1005 7.0657 -0.258352 1.37506 0.755958 
17670 6 20.1319 21.2549 6.64674 -0.726819 0.881041 -1.23872 
17707 7 20.7868 25.2363 7.6314 4.65736 4.89324 -0.132662 
17706 7 21.1787 26.5559 8.43819 0.0898826 6.44894 6.72426 
17671 6 21.5933 25.7538 7.94146 -0.239793 -4.61236 5.68 
17804 9 18.1596 28.2261 8.79174 4.30135 -0.386803 -3.03818 
15302 9 22.12 22.0167 7.2663 -10.793 2.25498 -0.661592 
15082 7 28.9341 21.4367 6.98265 -0.151601 1.89036 -3.04972 
15309 7 26.1711 21.1856 5.56242 -0.0531919 0.352011 -0.583555 
15297 7 25.7773 22.9358 5.36905 0.023635 0.420918 0.0385501 
15076 3 22.8653 21.7306 7.945 5.25981 -10.1427 6.66448 
15105 6 25.4296 21.9972 5.7434 2.56795 2.86071 8.80969 
15067 1 28.5009 21.8246 10.3102 7.49995 14.1041 19.6382 
17603 1 22.8719 21.8054 10.3091 41.4582 30.8615 58.3888 
15070 8 24.6898 21.8654 7.53391 8.35558 21.7211 -5.52554 
15157 7 24.761 24.7113 6.5409 0.0526366 1.38776 -2.27782 
17693 1 22.4585 25.6458 10.3024 35.1828 46.7144 66.619 
15118 6 24.3516 25.0692 5.80024 0.218927 -0.014385 -0.0759281 
15156 7 23.4675 25.4068 6.08223 0.34694 0.0648893 -0.0176631 
12750 9 28.7793 27.0604 8.02173 -18.1822 -1.33349 -3.54651 
15145 3 25.8709 28.1424 8.32624 -24.7727 -9.7363 24.3918 
15077 4 25.2347 23.1977 8.50469 -14.7421 -21.6422 -11.7085 
15146 4 25.5466 25.6818 9.29943 -7.66248 17.9964 -15.4827 
15143 2 25.8227 27.2278 9.63665 33.0826 57.1283 42.0231 
15071 2 25.6377 24.1622 9.58877 42.1457 136.829 68.8988 
15078 5 27.0823 23.775 9.8664 3.58192 -1.48196 -12.2514 
15148 5 27.2019 27.5255 10.2775 11.5987 -13.2087 -15.7276 
15051 1 28.9278 25.6837 10.4438 0.281439 12.8253 46.8722 
15147 5 24.7278 27.7419 10.5663 3.90153 -1.82105 -8.13387 
12524 3 29.1596 26.0649 8.01414 -11.1948 -1.23664 8.96976 
15045 6 29.2043 21.7754 7.82857 -18.3571 -10.9263 5.14383 
15251 9 25.5134 27.6474 7.63837 -0.0990621 -0.31724 15.5322 
15151 5 24.6677 23.8201 10.7274 -4.83478 -8.24903 -16.0289 
25272 7 0.714852 4.38259 16.1262 0.515291 -2.00078 3.23059 
25198 5 4.5419 2.55475 12.6561 -16.3434 -9.32307 -9.73386 
25195 5 4.3158 -1.09258 12.7632 -0.621155 -3.18284 4.07116 
25511 9 0.0987877 1.50338 16.0907 -31.1737 2.53726 -2.19441 
22635 1 6.05896 0.692999 12.8525 -6.42639 2.61773 -14.4455 
25268 5 2.06322 2.89899 12.9931 0.776499 -10.1394 -22.3388 
25258 1 0.250924 4.4912 12.7638 -4.94438 -4.81947 7.98324 
25207 1 0.476342 0.786529 13.0733 14.3574 41.8482 24.1193 
25191 2 3.47612 3.03985 13.5769 18.8323 152.387 66.1643 
25263 4 3.57926 4.53329 13.9916 -22.9457 12.6519 -25.846 
25197 4 3.26023 2.0922 14.7531 -12.1104 -24.3187 -7.51681 
25192 4 3.04502 -0.482259 14.848 -10.9561 -18.7191 -10.5506 
25196 3 0.734219 1.02227 15.3903 -3.31921 -15.826 8.28306 
25190 8 2.53653 0.895208 15.7912 -30.071 13.2497 -13.2214 
25240 6 2.81829 0.327739 17.6057 2.17152 -0.0926671 17.383 
25519 7 3.17087 1.06168 18.365 0.998592 -7.59252 -14.8985 
25507 7 3.26733 -0.560422 17.939 0.846242 7.44481 2.14154 
22649 6 4.42312 4.94015 17.1962 -28.7155 -7.19302 -33.0001 
25308 6 0.117309 4.37027 15.3821 -33.8866 1.37461 10.1551 
22959 9 6.26251 4.47215 16.1576 32.901 2.26581 24.033 
25270 6 1.55169 4.45988 17.8886 -21.6357 16.3887 -21.5918 
25310 7 1.97772 3.63993 18.2545 1.19978 5.84939 -4.21445 
22655 1 6.37544 4.67075 12.8239 0.385973 5.3737 -3.21358 
25194 5 1.89442 -1.62182 13.1754 0.706048 -13.1024 -18.732 
25189 2 3.31878 -1.5892 13.8009 45.3534 -2.45839 91.6377 
25309 7 0.943323 4.76789 18.535 6.04965 -2.34767 0.645111 
22683 6 6.20306 0.257529 15.2565 -24.0378 2.76148 -7.61658 
22650 7 6.43127 -0.665404 15.5875 3.83086 4.6722 -4.19906 
22684 7 3.58495 4.68427 17.5206 -0.789292 -5.41055 -4.26622 
22685 7 4.07083 5.64796 16.6071 1.45731 -2.5859 -9.42285 
22651 7 6.34957 0.841963 16.0654 4.76214 5.6387 8.68521 
22644 3 6.91048 4.46323 15.192 26.6476 -14.1739 34.681 
20061 7 6.82991 2.77482 16.6162 1.39312 6.11428 5.69798 
20023 6 7.0067 2.0626 17.27 -15.8725 -8.42439 -14.8742 
22760 7 5.39018 4.49049 18.4309 3.37164 0.943383 -2.23647 
22687 7 5.74194 0.940694 18.6388 3.05284 2.22281 -0.422076 
22759 7 6.25544 3.09871 18.7133 7.9415 18.9236 3.77363 
25236 7 1.03557 0.576081 18.7185 8.80109 5.59268 -2.85186 
25201 6 0.126564 0.584537 19.1411 -5.48734 -18.4932 9.72923 
22686 7 4.83843 -0.0388003 19.1838 4.07875 5.83409 -1.8825 
15278 9 27.77 28.4894 16.2357 -0.937444 8.9497 32.7693 
2035 7 -0.41644 13.2822 7.82021 4.19939 0.279402 -1.77752 
12511 7 29.4783 24.2157 15.7114 7.07988 4.50596 -8.51455 
20022 6 13.6561 -1.82674 17.1954 -11.0071 -6.3544 1.4026 
20062 7 7.95619 2.06465 17.3859 3.50649 3.27315 -0.531268 
20101 7 10.3542 0.262758 17.7096 7.11451 1.16445 3.17154 
22931 9 9.5388 -0.555407 15.7646 0.346096 9.66483 78.3217 
22643 5 10.3472 2.57234 12.1955 -0.915293 -2.74348 -8.32051 
20083 1 12.0539 4.57824 12.2941 18.2995 11.5692 23.0923 
22642 5 7.78438 2.32799 12.6693 -1.3369 -8.0783 -19.273 
22572 5 10.3915 -1.19034 12.4814 1.98411 -6.12581 -0.767014 
22647 5 8.01803 -1.15376 13.3887 13.2627 -12.2847 -18.5342 
20029 1 12.4935 0.818447 12.5759 12.4712 22.85 3.88664 
20095 5 13.8672 2.81253 13.0198 -3.43176 -8.94052 -13.3773 
22637 2 9.23854 2.21284 13.1776 43.6052 156.902 74.1735 
22565 2 9.47766 -0.798971 13.6553 30.041 29.6983 37.7376 
22641 4 9.6135 0.790931 13.697 -17.6722 19.2469 -25.2628 
22640 4 9.10375 3.21619 14.2882 -11.5244 -18.7632 -9.05653 
20060 6 12.6883 0.885343 15.2389 -19.2354 -3.49067 29.2209 
20025 7 12.4746 0.981415 16.1802 2.17344 0.638545 -2.17624 
22638 8 8.76957 4.49975 15.4324 53.3978 25.3248 30.986 
20024 7 12.9449 -0.0498882 15.3593 4.69295 1.05806 -2.09678 
22688 6 9.46253 4.40911 17.2161 -2.70512 10.2007 23.6605 
20130 6 9.42735 0.451472 17.4391 13.0967 13.0357 13.0705 
20016 5 13.8732 -1.10957 13.0216 4.50027 -14.0335 -19.4096 
20100 7 8.97203 -0.265477 18.0217 -3.91091 11.5321 7.49098 
22967 7 9.36645 3.49564 17.8334 0.562305 19.3258 9.33761 
22571 3 9.80466 -1.22714 15.0849 -19.4975 -22.5746 19.6236 
22955 7 9.30498 5.23551 17.9017 -0.502372 8.2613 1.78509 
20379 9 14.2256 1.80768 15.2108 25.2374 10.6104 11.8326 
20064 7 14.2532 -1.58781 16.4658 5.30532 -0.197065 4.97404 
20135 7 12.3788 -0.364485 18.4928 3.17652 1.82161 -2.22506 
12406 7 29.7528 12.2776 18.8272 9.22584 2.64548 -1.61653 
22919 9 9.47436 1.68242 19.1069 -0.608859 2.8525 -20.1783 
20096 6 11.7845 0.0253491 19.131 -22.1924 -5.68736 15.9297 
25219 7 -0.410332 1.92604 7.97288 4.96327 0.569298 -1.57914 
12399 6 29.6498 8.31355 19.2 -17.1395 -6.40583 19.3981 
20378 9 15.4007 0.0444891 14.8487 1.30703 87.222 24.6381 
20012 2 15.2359 -1.61828 13.5115 8.90757 -70.8876 77.7726 
17469 5 19.9364 -1.30131 13.4326 -8.45446 -13.4724 -13.6588 
20017 5 16.2815 -1.21496 12.5395 8.46088 -0.923906 -7.17021 
20020 5 16.2894 2.4578 12.6312 -3.83205 -4.28608 -8.22827 
17477 1 18.4308 4.50707 12.7514 29.6628 25.6438 53.6758 
17458 1 18.218 0.637135 12.871 51.354 40.8696 14.607 
17464 5 19.9587 2.61017 13.0923 -12.6652 -13.7172 -16.6489 
20014 3 15.3481 -0.927596 14.9324 -8.99758 -8.09881 18.7545 
20013 2 15.2355 2.86552 13.6686 24.3566 -27.0255 63.5679 
20089 4 15.4847 4.41259 13.8828 -12.0405 9.35085 -20.3224 
17460 2 21.2934 2.30374 13.8302 74.0117 -33.5805 79.2693 
17386 2 21.2555 -0.760946 14.0881 53.5446 33.6601 28.8753 
20019 3 15.2193 1.94481 14.9265 -3.55473 -8.31386 13.4725 
17466 6 18.1688 1.10197 15.4173 -4.50714 -6.25093 11.3706 
17494 7 18.6208 1.61157 16.1157 3.62733 6.22802 0.311865 
17493 7 17.1972 1.37512 15.5816 19.1371 3.24324 -3.11694 
17471 6 19.7937 3.01504 17.2881 3.76447 -0.830613 11.0228 
17510 7 20.528 3.3079 16.6762 4.49887 2.83401 -15.2344 
17509 7 20.2634 2.95171 18.176 2.60272 1.0633 12.449 
17463 4 21.2166 0.803669 14.1626 -20.7897 -15.317 -32.4092 
17472 7 18.6107 4.39758 16.2557 8.10373 9.04657 3.44157 
17508 6 18.3015 4.58395 15.3345 -19.0825 -17.0467 18.992 
17473 7 17.4662 5.05581 15.3549 3.11897 2.28025 -4.98813 
14959 7 21.5974 -0.438558 18.4635 -0.0506368 7.56992 4.4667 
14960 7 21.5126 1.0907 18.0897 0.55949 10.9316 2.07711 
17391 3 21.3355 -1.42911 15.4223 -15.4406 -38.676 -40.2106 
17825 9 21.4205 -0.815413 16.1555 -0.914574 4.04329 -45.8997 
17462 3 21.6306 3.18699 15.0931 -29.1806 -27.7372 -5.78803 
14918 6 21.8745 0.209766 17.7904 0.407624 24.5642 -4.12389 
17583 7 18.3484 4.3585 18.2642 6.06179 7.49066 -0.726349 
17826 9 21.2764 4.04778 14.9342 -2.17081 -43.4281 -21.9244 
17544 6 17.998 4.94374 19.0011 -17.1207 -8.66954 24.0076 
17827 9 20.1169 5.72054 15.3361 26.811 19.6521 27.0068 
15101 7 23.4461 18.5215 19.2217 1.60593 -0.429343 -4.04268 
17456 7 17.9418 0.898074 18.8552 1.90841 3.06779 0.212201 
20343 7 10.4669 26.4416 19.2652 1.3729 -2.40831 -5.89136 
12621 7 27.601 28.2599 18.3688 -1.88786 9.41682 3.11652 
12293 7 29.541 1.712 15.7577 10.9481 1.36705 -3.49631 
17392 5 22.3788 -1.113 13.0479 9.85873 -2.37187 5.27493 
15272 9 26.8688 -0.673651 15.5177 -7.10023 -2.44242 -25.6525 
14833 2 27.436 -1.7351 13.7653 1.8434 -21.7064 69.076 
14837 5 26.0685 -1.25524 13.3193 -12.1729 -14.7513 -19.4258 
14835 3 27.662 -1.03016 15.121 -30.7169 -31.8785 -32.5047 