ITEM: TIMESTEP
540000
ITEM: NUMBER OF ATOMS
25517
ITEM: BOX BOUNDS pp pp ff
-3.8959205201285124e-01 6.0088135642019459e+01
-1.9452389155355383e+00 5.9115524189537531e+01
-1.2206056431032383e+01 1.1390111600702880e+02
ITEM: ATOMS id type x y z v_stressx v_stressy v_stressz 
25292 7 5.89857 3.03966 7.5916 -2.48713 -8.4993 -6.23127 
25293 7 5.98077 1.53035 7.7064 -1.91088 -5.91708 -1.97473 
25252 6 5.35811 2.25094 7.51796 -6.32925 -3.23681 0.234417 
25287 5 0.61597 0.755495 10.7564 8.16402 -1.45951 2.24286 
25283 5 2.94291 4.2301 9.842 11.0679 6.51247 -12.9018 
25281 4 1.3887 2.44216 9.07367 -12.5371 2.06228 -16.43 
25280 4 1.07853 5.00258 8.46007 -12.7282 -8.57756 -6.92092 
25277 2 1.45655 3.94107 9.49571 50.3461 36.4605 79.9884 
25215 5 2.99957 0.588718 9.72621 -14.5463 -10.1329 -11.8457 
25209 2 1.59287 0.935181 9.44522 6.89409 -58.1394 73.1744 
25188 1 4.8243 2.58953 9.97468 5.62293 1.25166 13.7163 
25214 3 0.796635 0.0137284 8.44439 -1.97031 -4.6228 1.93851 
25282 5 0.520916 4.37471 10.6565 -14.8527 -14.4172 -17.9951 
25458 9 1.40812 -0.435335 7.83607 0.0229922 2.0837 1.71493 
25206 1 4.52732 -1.17961 10.115 34.7655 37.9435 20.6936 
22660 5 6.52822 0.875659 10.2203 -1.06561 -5.66153 -15.1946 
22735 5 6.623 4.87348 10.5536 2.31781 -9.05543 -14.8905 
25505 7 1.83983 5.65447 5.50835 -0.0553563 -0.160289 -0.296825 
22662 3 7.17647 4.29529 8.22411 -11.893 -23.1426 -18.4171 
22658 3 7.30314 0.346889 7.89736 -14.8502 -15.1978 -11.1449 
22905 9 7.65252 -0.485879 7.46068 0.0204867 -0.416288 -4.49684 
22906 9 7.50322 4.57024 7.35908 -2.76361 4.34243 9.75049 
20115 7 11.1372 2.292 6.49758 0.44582 -0.00525672 -1.17016 
22656 2 7.7059 0.365729 9.40584 21.4091 74.2564 61.6169 
20116 7 12.1136 2.88755 7.40659 19.6644 6.67027 2.56164 
20078 6 11.1398 2.86581 7.23657 -15.9675 -11.6134 2.05515 
20106 3 13.741 4.72985 7.46261 -15.6471 -10.9852 42.4628 
22657 2 7.60419 5.1024 9.41016 53.5434 -16.3522 21.8761 
20036 3 13.619 0.47741 7.57109 -16.501 -19.6274 16.6146 
20107 4 13.6664 2.6833 8.8298 -17.634 -14.0821 -33.9495 
20104 2 13.8784 4.18168 8.97251 30.8661 36.1668 94.8666 
20031 2 13.7132 1.1448 8.96008 61.603 164.147 15.0924 
20108 5 12.6966 4.70757 9.81807 14.6733 12.0166 1.3912 
20112 5 12.4932 0.846951 9.91178 11.0705 -0.203416 6.44082 
22654 1 10.4859 2.78478 9.68506 11.4865 10.2916 12.3427 
22661 5 9.03983 1.11007 9.56315 -7.51971 -6.53433 -16.3469 
22663 5 9.10858 4.7108 9.73761 4.44547 -12.7129 -15.4671 
22563 1 10.886 -1.13469 10.1589 -0.647771 -0.540683 -19.8661 
22659 4 7.7627 -1.12896 9.68153 -9.25095 -34.8916 -34.916 
22629 6 11.3751 -1.065 7.76545 -16.7672 5.07926 2.76203 
22669 7 11.9249 -0.207968 7.44815 1.29633 5.21798 -1.31957 
20352 9 13.8605 1.22514 6.87465 0.718669 12.5328 14.6306 
20189 7 14.2777 3.18994 6.51456 0.283496 13.5131 8.32417 
20353 9 14.543 5.23857 7.22704 7.73574 13.1993 16.7737 
20148 6 14.5671 2.45013 5.87332 0.144087 0.0574257 0.100985 
22740 7 11.2703 5.5881 6.8279 3.28399 1.48052 -1.20512 
22738 7 8.76742 5.41578 5.90114 -0.679289 0.706626 -1.3569 
22701 6 7.85394 5.37142 5.69312 0.454536 -0.345434 7.87165 
22739 7 7.886 4.86164 4.87022 -0.0110217 0.0203737 0.0085185 
22670 7 11.9327 -1.89861 7.72342 1.03673 1.63381 -5.3629 
20188 7 15.4435 2.20345 6.22553 0.814912 -0.13766 0.0647539 
20037 5 15.0057 0.565552 9.66218 -0.891933 -6.94374 -13.1525 
20118 7 17.8719 2.63796 7.70159 5.65843 -0.357267 -2.98537 
20117 7 17.6995 1.17882 7.44002 3.01054 2.55304 -4.74422 
17799 9 19.455 -0.241526 7.33338 0.310496 6.60484 17.9033 
20077 6 17.1284 2.01775 7.60787 -23.2161 2.40896 26.8819 
17484 3 19.536 4.02271 8.03155 -4.18742 -2.5095 -2.22965 
20109 5 15.1822 4.68195 9.53593 -5.79815 -7.3467 -17.7402 
17480 3 19.3808 0.510653 7.95906 -16.39 -32.0209 10.993 
17478 2 19.7385 0.13463 9.405 32.4965 34.4264 49.0612 
17479 2 19.7269 4.90401 9.32133 46.7883 112.553 60.8669 
17485 5 21.0972 4.45706 9.83859 4.83589 -15.8945 -16.8063 
17483 5 21.125 0.57616 9.92672 5.14454 -9.99017 -13.4531 
17482 5 18.7273 0.612358 10.4453 0.967684 -3.47589 -6.37704 
17560 5 18.5746 4.39351 10.2378 -1.09755 1.62467 -11.7718 
20011 1 16.7883 2.43064 10.1919 48.9612 45.9362 28.7839 
20028 1 16.5417 -1.33752 10.1131 24.0034 17.2585 9.86574 
17481 4 19.613 -1.37684 9.30614 -12.2039 -19.6207 -38.1034 
17800 9 20.2785 3.41394 7.96437 0.3059 -2.91474 -5.51212 
20002 6 16.2002 -1.21507 7.53432 -10.44 -7.53335 13.5183 
20044 7 15.5857 -0.449442 7.68688 4.34505 8.58815 -2.86172 
20043 7 16.3516 -1.12082 6.60323 0.28228 0.201253 -0.845759 
17377 6 19.8786 -1.6773 6.3322 0.24802 -0.13891 -0.0100548 
17415 7 20.5742 -1.92657 6.98281 2.85578 2.47113 2.08898 
14864 7 23.6314 3.83266 7.75133 5.58767 -4.70779 -1.45685 
14825 6 23.2988 2.969 7.82153 -9.28521 -3.79411 1.3651 
14863 7 24.1611 2.53617 7.90018 3.87533 -1.32848 -0.553251 
17476 1 22.5994 2.5974 10.2549 -65.5139 -41.1956 58.1469 
14928 3 25.5679 4.59148 8.20809 -31.1887 -49.6706 -46.4507 
15246 9 24.7065 0.00657495 8.04332 7.96341 10.8083 20.1051 
14856 3 25.5405 0.383335 8.16649 -12.5381 -14.8428 10.584 
14929 4 25.6618 2.47021 9.27814 -17.5433 -35.0629 -33.6427 
14851 2 25.7726 0.935136 9.6021 19.0673 -189.473 74.9331 
14926 2 25.8313 3.99121 9.61155 27.8225 145.218 88.3551 
14857 5 27.172 0.513951 10.0212 -9.64109 -12.0325 -21.0212 
14931 5 27.2703 4.30837 10.1061 -28.2363 -11.4604 -17.9266 
14832 1 28.9014 2.41808 10.4207 14.8572 12.1701 49.3481 
14930 5 24.8007 4.37565 10.6576 12.7612 -4.62456 -12.6673 
14934 5 24.7275 0.511689 10.6576 4.69978 -3.89425 -0.604434 
17384 1 22.8636 -1.16741 10.5973 -2.24826 4.24097 -27.3042 
14848 1 28.7231 -1.43222 10.2624 15.1267 18.6541 5.23538 
14898 6 29.1786 2.45721 7.88738 -13.7953 -15.3319 6.23296 
15247 9 26.3681 4.66526 7.72718 -1.61636 -1.09669 -15.305 
14826 6 28.1456 -1.3901 7.71182 1.35909 -3.42308 26.3946 
14861 7 27.5228 -0.59177 7.7367 4.98931 5.85694 -2.2199 
14862 7 28.7608 -1.17174 6.9734 0.155346 0.0380348 -0.0632924 
17565 7 23.8543 5.62398 7.62904 12.5197 3.70968 -1.59613 
17491 7 23.3409 -0.830267 7.25909 0.0964589 0.0699441 -0.455126 
12347 6 29.4782 5.3719 8.00631 -15.3198 -7.10986 4.03092 
14939 7 29.2544 3.33895 7.63004 0.450776 -0.927943 -1.22567 
17492 7 24.1978 -1.77871 8.08715 8.20562 2.44899 -6.12531 
17450 6 23.2929 -1.42611 8.02021 -21.5636 -6.95083 18.9047 
25291 7 5.22591 6.53661 7.32751 1.17179 1.66559 -3.1849 
25290 7 3.82687 6.55555 6.86919 -0.691396 1.66618 -4.40815 
25253 6 4.33607 6.71227 7.63615 -9.5755 -11.6281 2.15688 
25517 7 1.84279 7.29014 5.50902 -0.0255766 -0.0578624 -0.555051 
25313 6 1.21101 6.45671 5.78137 6.00091 -5.32424 30.3583 
25362 7 1.19888 10.608 6.31952 -0.0162394 -0.0151284 -0.0216827 
25275 1 4.36027 6.50413 10.1833 4.67291 13.141 0.474282 
25278 8 0.639374 6.49188 7.63496 53.0385 31.972 10.1906 
22958 9 3.89074 10.3239 7.2783 -3.48068 1.48447 0.272068 
22732 3 4.70032 10.3548 7.96195 2.45166 -12.5655 13.6709 
25359 5 0.701437 8.49354 11.0939 -9.65399 -10.5672 -15.9611 
25356 5 3.08021 12.146 10.2169 9.98364 0.0391423 -12.9794 
25355 5 0.535314 12.2845 10.6518 -2.73515 -5.28889 -7.62922 
25354 4 1.48185 10.2856 9.54639 -13.5669 13.9272 -27.2063 
25353 3 1.39194 12.6945 8.41831 -13.4924 -8.43871 3.98603 
25351 2 1.63225 11.8296 9.72046 40.3291 48.8971 67.0497 
25286 5 2.93236 8.28049 10.0288 -5.48983 -16.0482 -19.1523 
25285 4 0.892127 7.85648 8.74192 -20.4895 -18.5274 -5.0188 
25279 2 1.49492 8.71367 9.83417 15.3447 98.8791 77.9544 
25259 1 4.86194 10.2149 10.3927 7.91476 9.59242 52.7699 
25327 6 1.60703 9.7444 6.34125 2.32138 1.40367 -0.799786 
25363 7 1.38635 9.50649 7.2315 0.53181 2.68111 1.57316 
22807 5 6.5607 12.2849 10.8694 -15.6562 -14.4241 -17.7171 
22730 5 6.65234 8.34528 10.5398 -4.77796 -14.7732 -14.1599 
22726 8 6.48614 10.4372 7.49213 -1.78223 17.7285 -26.6832 
22761 6 7.05704 10.8316 5.66761 1.7736 2.51764 6.85222 
22733 4 6.9844 11.7221 8.61372 -10.9065 -12.7206 -2.65128 
15171 7 22.9737 27.16 19.1055 11.5116 18.2706 -3.00781 
22728 4 7.23016 9.05362 8.29312 -12.8648 -20.3013 -5.86981 
22953 7 7.91026 10.1976 5.3838 -0.065954 0.100033 -0.652606 
22965 7 7.33207 11.8331 5.45166 -0.0489088 0.141634 -0.277831 
22741 7 11.5 7.01103 7.05421 2.60564 -0.0336102 -1.56311 
22700 6 10.8104 6.36788 7.23855 -16.1293 -2.08453 18.4373 
22636 1 10.9188 6.69179 9.82281 4.1279 9.19429 12.5366 
22729 4 7.48133 6.61374 9.11192 -11.103 -8.39314 -27.6533 
22668 7 10.5831 8.59932 7.42923 1.9111 4.33766 -3.16576 
22725 2 7.70374 8.13304 9.39568 27.0277 31.9314 97.9567 
22727 2 7.53968 12.6129 9.75953 17.0034 132.797 81.283 
22630 6 10.7174 9.56513 7.55044 -8.19881 0.758981 5.26304 
22667 7 11.6785 9.56 7.58776 1.27181 0.724226 -1.3116 
20110 3 13.3722 8.00482 7.87861 -10.9355 -1.09043 -3.87658 
20176 4 13.3404 12.979 8.33811 -6.5862 -6.97073 -4.21894 
20177 4 13.5478 10.5013 8.95979 -6.26012 -0.307097 -16.5441 
20173 2 13.7057 11.9908 9.40771 33.603 -4.87906 79.2532 
20105 2 13.7244 8.93675 9.12343 -2.17877 6.55757 86.2228 
20178 5 12.5598 12.2564 10.4158 -7.67486 -12.4781 -22.6341 
20183 5 12.8988 8.51128 10.3587 -3.71016 -11.094 -7.20177 
22734 5 8.97942 12.4092 10.1072 -12.4086 -12.5493 -17.7408 
22723 1 10.5486 10.4168 9.97488 -3.13144 4.1381 10.0696 
22731 5 9.11607 8.33188 9.85191 -15.5523 -24.3493 -22.3304 
20354 9 13.8366 7.1662 8.02076 -1.16277 -12.317 -25.3375 
17489 7 15.3685 7.53149 7.27379 -6.20834 -2.26593 -3.77954 
17490 7 16.4114 7.08597 6.51817 -0.22471 0.0339876 -0.313345 
17451 6 15.9423 6.78743 7.29642 -18.7241 -17.2606 17.5138 
17555 4 19.5148 6.40419 9.24816 -10.8645 2.38973 -18.9191 
20102 1 16.4765 6.46221 9.86905 10.8639 0.113716 19.5025 
20179 5 15.0791 12.3713 9.86379 2.68215 3.79313 -11.8399 
20111 5 15.0953 8.51182 9.52882 -26.2578 -13.8305 -15.2205 
17802 9 19.4832 11.878 7.51898 -0.10913 -0.0998252 0.170036 
17554 3 19.6317 8.68088 7.9737 -1.85569 -5.31794 6.19381 
17801 9 19.3812 9.57046 8.10065 0.624276 12.154 6.34497 
17558 3 19.3121 11.5602 8.35726 -4.14312 -1.95264 -0.521157 
17552 2 19.7279 7.97853 9.40881 25.8235 58.5558 63.6819 
17553 2 19.7446 12.5897 9.5152 42.5736 42.5995 69.065 
17559 5 21.2085 12.1329 9.83297 6.81698 -0.472333 -10.8442 
17557 5 21.1128 8.33065 9.93016 0.869931 -11.5685 -16.1951 
17556 5 18.49 8.44005 10.194 12.304 -3.92938 -7.90873 
17631 5 18.754 12.2185 10.6826 2.14219 -5.43573 -4.47399 
20084 1 16.8199 10.2664 10.3615 -10.9368 -3.76587 -1.09558 
17566 7 22.7737 6.49197 7.09029 0.0940739 0.0178668 0.0491265 
17525 6 23.2369 6.30614 7.97014 -29.8525 -6.00399 17.1538 
15249 9 26.4199 12.3989 7.50271 0.843891 0.686538 0.272258 
14924 1 28.8784 6.30371 10.2599 25.2066 20.2216 11.7549 
17459 1 22.8153 6.36449 10.4136 -83.6138 -68.2217 34.2117 
17550 1 22.6813 10.1773 10.109 18.9144 17.6231 8.61165 
15248 9 25.0074 7.30471 8.25379 6.71699 8.89244 8.81594 
15002 3 25.5553 12.1132 7.86039 -4.82521 -8.8001 8.71033 
14932 3 25.8534 7.69566 8.37038 -4.62122 -4.20504 1.281 
15003 4 25.6929 10.0578 9.40228 -9.02648 -5.84246 -23.5163 
15000 2 25.8234 11.5586 9.33827 28.9425 102.68 73.4623 
14927 2 25.9265 8.52626 9.67582 39.7802 66.7974 73.3591 
15005 5 27.2586 12.0307 9.65026 -1.57559 -12.6005 -16.9036 
14933 5 27.3368 8.19806 10.2714 9.40328 -13.9756 -17.1411 
15004 5 24.794 12.1885 10.2281 1.20307 3.10922 -12.3676 
14907 1 29.0423 10.186 10.3202 23.519 18.406 21.7504 
15008 5 24.7476 8.17989 10.6591 15.7862 -0.415187 -2.21855 
14899 6 29.4402 9.94521 7.67407 -3.23816 0.0238137 5.25476 
17637 7 24.0129 13.1402 7.48134 1.60999 0.649683 -0.17807 
25427 5 0.471403 16.2254 10.9577 6.37316 -3.9232 -5.55051 
25424 5 3.05777 19.7432 10.2643 -15.0938 -6.48073 -10.0824 
25423 5 0.62854 19.9386 10.7649 4.12006 -4.1767 -10.9191 
25422 4 1.53223 17.8586 9.5283 -9.65067 7.14906 -14.3759 
25421 3 1.35286 20.1653 8.46116 -3.23532 -2.59468 -0.162914 
25419 2 1.68921 19.4163 9.80763 -41.4184 140.141 67.1128 
25358 5 3.0433 15.9649 10.3935 6.18616 -1.10579 -11.4084 
25352 2 1.62447 16.359 9.9389 56.298 2.09333 37.0787 
25333 1 4.76049 17.9652 10.8964 -5.53676 13.7148 -30.6945 
25357 3 1.27516 15.4524 8.77037 -12.1777 -17.2317 19.4998 
25460 9 1.6173 15.8283 7.87293 0.0983638 0.35916 4.23988 
25349 1 4.58657 14.1062 10.6957 7.5066 16.1216 3.71464 
22803 5 6.49129 16.0975 10.8756 1.16592 -0.615848 -0.25638 
22875 5 6.46084 20.071 11.1158 20.2598 7.97184 8.99858 
25459 9 1.48999 13.6574 8.56205 -1.30479 4.85403 -4.27726 
22801 3 7.03055 16.5942 8.55987 -2.18577 -6.90278 4.2924 
2179 7 -0.387305 20.8468 8.22815 14.4071 2.25743 -6.21333 
22805 3 7.32975 19.3599 8.91011 -8.38051 -8.63591 26.2838 
22908 9 7.54595 19.9046 8.12021 0.00863687 0.259396 6.54289 
22774 6 7.84223 14.1301 6.46407 2.06231 1.26801 1.90912 
22907 9 7.21638 17.5067 8.66763 -0.10803 20.2365 1.66386 
22800 2 7.69826 20.1918 10.1825 71.5112 58.3362 38.0341 
22810 7 9.52718 17.6319 7.67339 -2.02675 0.939 -1.98538 
22775 6 10.3724 17.5576 8.1234 -18.1466 -8.95965 6.70015 
22811 7 11.0269 17.744 7.42304 6.09125 1.02977 -1.23543 
20249 3 13.6146 20.1923 8.5115 -17.3539 -15.9764 19.7774 
22799 2 7.50164 15.6895 9.76752 0.745308 20.9531 70.1235 
20181 4 13.1648 15.598 8.7498 -9.54473 -31.992 -11.7651 
20250 4 13.59 17.8559 9.69511 -13.7031 6.43942 -27.6897 
20247 2 13.6446 19.4223 9.89672 2.30887 29.0648 68.1589 
20175 2 13.7411 16.3389 9.95052 44.1772 116.589 87.657 
20255 5 12.7826 16.0392 11.1348 -2.8103 -11.577 -16.324 
20251 5 12.5994 19.887 10.8751 -0.771102 -0.0582268 11.1096 
22797 1 10.5866 17.8329 10.6706 3.26908 -1.27717 9.98621 
22804 5 8.85928 16.0465 10.2629 -4.37729 -11.0538 -14.1897 
22806 5 9.15709 19.6726 10.6518 26.421 -12.5934 -11.5481 
20209 6 12.874 15.0323 5.7533 0.479059 -0.358802 1.53193 
20174 8 12.7095 14.4625 7.54514 27.2782 10.9882 -53.9659 
22802 4 7.35344 14.1712 9.46207 -20.8483 9.5476 -28.8253 
22707 1 10.7485 14.2517 10.2767 11.651 10.6021 -35.2621 
20180 3 10.8086 14.0423 7.95232 18.1801 -8.89166 4.85794 
20260 7 13.0324 18.8856 6.99744 0.129329 1.3282 1.26612 
20261 7 12.9162 17.3666 7.33817 -0.567755 10.5917 5.53926 
20401 7 13.4229 15.9899 5.62814 -0.161822 0.311324 -1.28357 
20406 9 10.0189 14.4108 7.4707 -1.26514 2.85334 -2.35856 
20413 7 11.9327 15.1884 5.26927 -0.0684742 -0.0248182 -0.439651 
20222 6 12.7014 18.0477 6.67459 -0.746435 0.720553 -0.998111 
22813 7 7.7456 15.0607 6.62462 -0.0726208 -0.0491905 0.0645746 
22812 7 7.44152 13.8113 7.30537 0.712622 1.45683 6.55257 
17861 7 18.0327 18.1656 5.18632 -0.0415063 -0.0259097 -0.195445 
17849 7 19.1146 19.332 5.5722 -0.0525578 0.151957 -0.564945 
17657 6 18.7692 18.3451 5.88217 -4.86727 -2.6319 15.2172 
20252 5 14.9691 19.7344 10.5394 -8.55233 -13.4248 -17.8216 
20182 5 15.2166 16.0409 10.213 -3.98261 -20.6505 -13.9357 
17622 8 18.5634 18.0799 7.75046 32.2873 27.8609 -14.1902 
17854 9 15.9449 18.6012 8.0719 -0.310111 2.00885 -3.26565 
17628 3 16.7563 18.0742 8.25458 4.01644 -9.97761 9.44329 
17624 4 19.3217 16.6826 8.46567 -7.81968 -11.5765 -3.82857 
17629 4 18.9827 19.4332 8.85904 -13.8032 -12.357 1.29489 
17621 2 19.6951 15.6526 9.54627 46.2462 95.1545 83.0057 
17623 2 19.5501 20.2671 10.0023 53.7323 25.1118 76.3597 
17630 5 21.0316 19.7719 10.2793 12.4801 -2.56979 -15.5647 
17627 5 21.1919 15.89 9.96206 1.11799 -17.7824 -16.847 
20155 1 16.8424 17.9752 10.6946 1.18094 10.9107 -34.8116 
17626 5 18.7672 15.8963 10.7355 -8.61265 -8.83922 -12.1929 
20171 1 16.7158 14.1373 10.3208 5.32969 6.42224 -21.7342 
17625 4 19.606 14.0957 9.12525 -6.02408 7.93255 -11.8948 
17564 7 21.4906 17.2833 7.58657 -0.588861 1.56103 -1.22742 
17703 5 18.6795 20.0258 11.2014 -15.1476 -11.9063 -21.6015 
17709 7 19.905 20.6273 7.34679 2.90713 4.93297 4.29063 
20259 7 15.568 20.8847 8.4035 12.198 3.53557 -2.32748 
17526 6 22.4132 17.452 7.70597 -7.54768 -6.67835 18.0505 
17563 7 22.8092 16.6576 7.3521 0.250483 0.344413 -1.93202 
17619 1 22.5682 17.9268 10.3236 11.2767 12.4725 -30.148 
15250 9 25.4259 16.554 7.3496 3.24412 4.16123 70.4973 
15006 3 25.6058 15.7572 7.92658 -17.2575 -12.1477 55.503 
15072 4 25.3173 20.4252 8.40544 -12.9874 -7.87066 -2.89233 
15073 4 25.9599 17.9542 9.15621 -15.6286 6.17951 -34.858 
15069 2 25.8295 19.4844 9.52152 46.454 197.079 67.5696 
15075 5 27.2671 19.8707 9.91392 4.93889 -4.38379 -14.7522 
15001 2 25.8934 16.4473 9.39988 30.7499 22.2691 33.0122 
15007 5 27.2951 15.9854 9.7832 -0.603716 -10.4776 -15.9182 
14980 1 29.1857 17.8209 10.1444 -12.5282 -20.71 15.51 
15074 5 24.8028 19.6389 10.6176 -5.6398 -5.44691 -19.2728 
15079 5 24.8396 16.1163 10.4638 8.81333 -3.54712 0.623572 
12533 7 25.4571 18.3754 7.23091 -0.357346 4.44783 6.03753 
17532 1 22.9834 14.1035 10.1761 10.0138 12.1492 8.75642 
14998 1 28.6373 13.9834 10.0874 20.3267 25.041 12.7429 
12492 6 25.1645 17.9196 6.43544 -1.2746 -1.70624 -0.928499 
12532 7 24.2391 17.8074 6.45162 -0.0701202 0.00940225 -0.22524 
17636 7 24.2982 14.6547 7.77674 3.1421 -4.69529 -4.5632 
17597 6 27.3956 19.7327 6.47718 -16.3577 -1.01882 1.16244 
17635 7 27.0344 19.9354 7.31032 6.38105 1.18225 -2.40001 
17596 6 23.5563 13.9987 7.66239 -11.3883 -1.59328 4.59083 
14974 6 28.7308 14.0837 7.53935 -5.68959 -10.8296 7.58609 
17634 7 26.9707 18.9124 6.11254 0.288236 0.568349 -0.154957 
15084 7 28.6931 18.2675 6.90767 0.590048 2.76739 -1.54122 
15012 7 28.1952 14.867 7.30744 1.76569 1.79131 -1.75675 
15044 6 29.2899 17.8272 7.55162 -18.4234 -15.3173 14.555 
15011 7 29.5706 14.1102 6.99075 5.05126 0.869371 -0.268034 
25461 9 1.63963 21.1191 8.56579 -0.429638 9.03376 -5.95332 
25417 1 4.459 21.7465 10.9217 -16.6775 -20.1271 -10.4437 
24923 5 0.754769 27.5218 10.9484 5.97531 1.8613 -2.40957 
25425 3 1.35108 22.98 8.77836 -10.5739 -8.39361 18.0479 
24927 5 0.559259 23.61 11.1153 15.7666 -1.44427 8.76911 
25426 5 3.10363 23.8017 10.4009 3.54837 -9.4283 -9.35773 
25420 2 1.64879 23.9265 10.0018 35.7206 97.914 58.566 
25401 1 4.97038 25.5329 10.7242 11.9535 4.97903 5.56404 
24924 5 3.18735 27.1766 10.4054 -6.29481 -6.0546 -14.1623 
24922 4 1.38256 25.4386 9.75254 -16.4686 10.4559 -16.9394 
24919 2 1.7823 26.9563 9.95451 1.46882 144.07 60.8342 
24921 3 1.55556 27.7248 8.56562 -3.23187 -0.921931 8.44249 
25462 9 1.60156 23.3783 7.96981 -0.0558474 0.117583 1.81156 
22871 5 6.64021 23.6959 10.9095 4.91044 -4.78001 -4.93296 
25451 9 2.36751 27.8615 8.13061 0.0511923 0.480506 1.53894 
22375 5 6.78156 27.3777 11.2762 2.15071 -3.95909 -4.29173 
20355 9 13.7553 21.1037 8.67011 -2.65645 21.2784 -0.896864 
22873 3 7.36095 26.8242 8.94079 -1.66459 -2.78401 22.8585 
22910 9 7.83453 27.1872 8.16884 0.0161372 0.300217 5.19632 
22881 7 10.5673 22.2037 7.78641 0.17442 0.148987 -0.585139 
22880 7 12.0072 21.7432 8.22322 12.0836 4.42798 -4.44455 
22869 3 7.56442 24.0265 8.5961 -0.856054 -1.29951 0.710965 
22842 6 11.0399 21.8185 8.50693 -11.6051 -8.51319 2.33425 
22909 9 7.42422 24.9915 8.72358 -0.305264 9.49252 -0.624647 
22870 4 7.80675 21.6814 9.76784 -9.85268 13.0532 -14.6355 
22781 1 10.8959 21.6885 11.0129 -27.0533 -19.5868 14.484 
22868 2 7.76545 27.7412 10.1816 37.8499 97.7257 40.0658 
22867 2 7.78902 23.2324 9.92461 53.9912 190.046 72.3867 
22381 7 12.0152 26.341 8.4485 11.1011 9.18138 -1.31261 
20253 3 13.4682 23.4016 8.82795 -29.2876 -27.8172 6.96416 
22380 7 10.8121 26.2531 7.54966 0.0746137 0.106104 0.097464 
22342 6 11.2091 25.8188 8.3988 -19.4601 -2.72598 29.6863 
20317 3 13.3219 27.8427 9.08682 -10.2313 -13.0736 -8.54998 
20248 2 13.7696 24.0294 10.2263 8.10094 4.54367 108.899 
20318 4 13.624 25.5447 10.0164 -28.9672 -19.0443 -43.3339 
20315 2 13.7788 27.0543 10.3348 51.0433 -15.2394 82.8628 
22865 1 10.6865 25.3992 10.9226 12.3464 11.1784 22.8325 
22872 5 9.17462 23.6871 10.462 5.20878 -15.6111 -13.9961 
22874 5 9.24947 27.6706 10.5948 6.67027 -9.67998 -10.0795 
20356 9 12.5954 23.6209 8.49206 10.2881 3.88162 -9.81919 
25431 7 14.1509 26.52 7.83751 1.07048 4.73389 6.7238 
20323 5 12.8525 23.6161 11.429 2.36269 -7.931 1.68827 
25430 7 14.093 24.9955 7.86813 1.67962 4.72564 10.4244 
25395 6 14.4016 25.7329 7.27378 -0.139357 0.0916188 -0.15974 
20258 7 15.2294 22.3163 8.12146 1.35107 0.126762 -1.41384 
20223 6 16.0015 21.7513 8.2238 -7.31328 -1.23066 9.0502 
20245 1 16.5342 21.695 10.8038 16.437 20.3765 36.7031 
17698 4 19.4354 21.7483 9.56107 -11.9777 -3.6565 -28.1129 
20320 5 15.2214 27.4242 10.856 4.52226 -10.9731 -14.9953 
20254 5 15.1801 23.5949 10.561 -15.9926 -11.6638 -20.0781 
20329 7 17.2434 26.6466 8.28058 4.00278 3.20564 -3.68851 
20328 7 16.0419 25.8023 7.61998 1.70083 -0.0180014 -0.0979785 
17803 9 18.6355 24.4714 8.19816 9.12915 9.20706 -0.728078 
20290 6 16.6573 25.8385 8.42977 -27.0819 -4.65744 8.81619 
17697 3 19.4666 23.9299 8.24968 -7.32749 -15.404 7.98928 
17701 3 18.7572 27.5768 9.07536 -11.419 -29.43 -3.32589 
17695 2 19.6311 23.298 9.64847 1.36929 4.71157 76.3542 
17696 2 19.6976 27.9701 10.2409 33.6589 99.6743 92.8799 
17700 5 20.9899 23.6351 10.1729 -17.2976 -7.5669 -19.0332 
17702 5 21.0953 27.3466 10.1236 7.92806 -13.2424 -20.9842 
17699 5 18.7076 23.7838 10.7613 -2.99782 -4.25803 -1.39523 
20229 1 17.0048 25.6018 10.9426 18.8329 15.1131 -11.4185 
17708 7 20.0702 22.1005 7.0657 -0.244001 1.39424 0.784954 
17670 6 20.1319 21.2549 6.64674 -0.744378 0.858272 -1.2708 
17707 7 20.7868 25.2363 7.6314 4.68253 4.9166 -0.0685208 
17706 7 21.1787 26.5559 8.43819 0.136296 6.49858 6.80873 
17671 6 21.5933 25.7538 7.94146 -0.418621 -4.77887 5.30703 
17804 9 18.1596 28.2261 8.79174 4.30416 -0.364371 -3.05719 
15302 9 22.12 22.0167 7.2663 -10.7729 2.28085 -0.699741 
15082 7 28.9341 21.4367 6.98265 -0.128304 1.91052 -3.101 
15309 7 26.1711 21.1856 5.56242 -0.0515836 0.353608 -0.582621 
15297 7 25.7773 22.9358 5.36905 0.0244822 0.422061 0.0399924 
15076 3 22.8653 21.7306 7.945 5.20077 -10.2571 6.9919 
15105 6 25.4296 21.9972 5.7434 2.52325 2.80348 8.77926 
15067 1 28.5009 21.8246 10.3102 7.45608 13.9801 28.4162 
17603 1 22.8719 21.8054 10.3091 41.856 31.0138 61.4116 
15070 8 24.6898 21.8654 7.53391 8.60292 21.9705 -5.80362 
15157 7 24.761 24.7113 6.5409 0.0790072 1.43722 -2.28917 
17693 1 22.4585 25.6458 10.3024 35.3152 46.8562 66.5187 
15118 6 24.3516 25.0692 5.80024 0.217208 -0.0175539 -0.0783345 
15156 7 23.4675 25.4068 6.08223 0.347541 0.0662537 -0.0167788 
12750 9 28.7793 27.0604 8.02173 -18.1471 -1.30734 -3.46692 
15145 3 25.8709 28.1424 8.32624 -25.1079 -10.1089 23.8498 
15077 4 25.2347 23.1977 8.50469 -14.8338 -21.8056 -11.7203 
15146 4 25.5466 25.6818 9.29943 -7.88003 17.934 -15.6696 
15143 2 25.8227 27.2278 9.63665 34.16 57.6791 42.2216 
15071 2 25.6377 24.1622 9.58877 42.4566 136.991 71.2841 
15078 5 27.0823 23.775 9.8664 3.50304 -1.39595 -12.5393 
15148 5 27.2019 27.5255 10.2775 11.3126 -13.393 -15.886 
15051 1 28.9278 25.6837 10.4438 0.242542 13.2284 41.5213 
15147 5 24.7278 27.7419 10.5663 3.64617 -2.01005 -8.38093 
12524 3 29.1596 26.0649 8.01414 -11.2785 -1.29592 8.87997 
15045 6 29.2043 21.7754 7.82857 -18.4805 -11.027 5.26537 
15251 9 25.5134 27.6474 7.63837 -0.0875053 -0.300355 15.5113 
15151 5 24.6677 23.8201 10.7274 -5.12507 -7.9916 -17.0993 
25272 7 0.850278 4.17445 16.0555 4.53992 -1.34752 4.44619 
25198 5 4.5419 2.55475 12.6561 -16.9446 -10.3967 -9.1578 
25195 5 4.3158 -1.09258 12.7632 -1.18116 -2.40595 2.57909 
25511 9 0.129913 1.90692 15.7212 -4.40298 2.57441 -4.61441 
22635 1 6.05896 0.692999 12.8525 -30.1015 -9.83135 -15.1917 
25268 5 2.06322 2.89899 12.9931 -0.915818 -14.011 -23.3697 
25258 1 0.250924 4.4912 12.7638 8.63706 2.3061 4.30451 
25207 1 0.476342 0.786529 13.0733 8.56343 28.695 15.4674 
25191 2 3.47612 3.03985 13.5769 20.9574 -52.5346 62.5757 
25263 4 3.57926 4.53329 13.9916 -27.5413 -12.8648 -36.491 
25197 4 3.26023 2.0922 14.7531 -14.3939 -35.2006 -16.6608 
25192 4 3.04502 -0.482259 14.848 -5.82668 -7.52833 -3.17358 
25196 3 0.686947 1.20378 15.2705 27.8532 -16.8088 6.81484 
25190 8 2.54035 0.924287 15.7936 49.6266 32.0994 37.52 
25240 6 3.58271 0.746249 17.4312 10.5708 -10.3886 48.0895 
25519 7 3.57569 -0.140027 18.0182 4.3538 4.68772 12.8477 
25507 7 3.32149 1.40841 18.2555 1.79357 1.61227 16.8068 
25308 6 0.159878 4.2708 15.3648 -25.6439 -8.23229 14.6489 
25270 6 1.66883 4.36983 17.9086 -23.2854 7.07196 -7.54213 
22655 1 6.37544 4.67075 12.8239 -5.56891 1.22688 -5.23661 
25194 5 1.89442 -1.62182 13.1754 -1.11662 -14.3628 -19.4946 
25189 2 3.31878 -1.5892 13.8009 47.1526 152.288 98.7335 
25309 7 2.56248 4.13352 17.4386 26.9687 -1.03081 5.19668 
22683 6 6.16121 0.364905 15.3213 -19.4002 -8.64121 -5.42899 
22644 3 6.87226 4.60862 15.1942 4.51415 -14.1659 8.97622 
22650 7 5.20255 0.400898 15.4931 -6.84664 2.13036 -3.50258 
22959 9 6.19438 4.85681 15.9807 -15.4737 3.12668 0.755049 
22649 6 4.13729 4.23648 16.72 -22.3512 -15.4167 -51.9055 
22684 7 4.26232 3.51897 16.0804 2.24726 3.21606 4.03154 
22687 7 6.20094 0.444343 18.8407 5.90531 8.61499 -2.95615 
20062 7 6.38719 2.7183 18.0782 -3.30252 8.91892 -0.0985654 
25310 7 1.80713 5.18464 18.4092 -1.53049 11.1805 2.6754 
22759 7 5.05726 4.43923 18.2752 2.94665 2.1334 14.3814 
22651 7 6.48879 0.824173 16.0939 -3.26611 3.56262 0.519703 
22685 7 4.14918 4.96833 16.1087 -1.79583 -6.92224 3.82461 
20023 6 6.96867 1.94312 17.9362 -10.5368 0.272508 -6.50263 
25201 6 -0.310795 0.0741022 19.0955 -8.21158 -0.580626 32.4155 
25236 7 -0.309741 0.638118 18.2546 2.34723 2.35448 2.72449 
25472 9 2.14128 3.26341 19.0885 0.878068 4.03626 3.68693 
25446 6 0.033799 19.8003 15.9 -35.6894 -21.0509 24.5525 
25312 7 -0.147677 4.31746 18.6126 8.93336 -1.68538 1.87129 
15136 6 23.3686 28.1319 19.1367 -24.7248 9.97957 11.1726 
25237 7 0.557397 -0.415469 18.9351 10.9309 2.74872 -2.52936 
20061 7 7.75503 2.25248 18.4426 2.96168 2.31871 4.17411 
20063 7 14.0687 -1.55041 17.9088 2.59569 6.356 1.60701 
20022 6 13.5872 -1.05661 17.2111 -21.0196 -4.61868 -12.3709 
20101 7 8.47571 0.514528 17.0641 -5.84308 0.0818822 -1.79758 
22931 9 9.66115 -0.563451 15.7253 -0.568841 11.2766 -38.2138 
22643 5 10.3472 2.57234 12.1955 -1.88685 -4.60298 -8.7077 
20083 1 12.0539 4.57824 12.2941 14.0696 7.9956 21.9497 
22642 5 7.78438 2.32799 12.6693 -1.19204 -8.69265 -19.3414 
22572 5 10.3915 -1.19034 12.4814 -3.1709 -7.69391 -8.80897 
22647 5 8.01803 -1.15376 13.3887 7.12926 -13.5148 -19.7301 
20029 1 12.4935 0.818447 12.5759 -6.57703 1.31221 -10.5725 
20095 5 13.8672 2.81253 13.0198 2.27663 -10.075 -10.4228 
22637 2 9.23854 2.21284 13.1776 44.6695 -10.1599 73.3156 
22565 2 9.47766 -0.798971 13.6553 38.2605 58.0154 53.699 
22641 4 9.6135 0.790931 13.697 -22.935 -8.57215 -27.579 
22640 4 9.10375 3.21619 14.2882 -9.76344 -18.2215 -9.62486 
20060 6 12.3513 0.693404 15.1267 -8.49783 -9.91793 1.99107 
20025 7 11.4935 0.288825 15.4351 13.0734 5.0078 -3.4734 
22638 8 8.69277 4.50056 15.4577 -13.5572 24.7948 -17.8801 
20024 7 12.9725 0.49765 15.8335 1.60696 4.19608 -1.37228 
22688 6 9.70436 4.07433 17.086 4.01441 -6.37025 13.1832 
20130 6 9.38977 0.308859 17.1052 -9.39852 -13.9785 -7.52157 
20016 5 13.8732 -1.10957 13.0216 4.82924 -14.9189 -20.6495 
20100 7 9.35291 -0.273555 17.8806 -3.05702 4.75412 18.4615 
22967 7 9.22363 4.31621 17.9997 -1.43263 7.58709 -17.6491 
22571 3 9.83271 -1.31953 15.0525 -30.5646 -17.9868 -9.93552 
20135 7 12.4165 0.166167 18.5714 6.03607 4.85596 -1.04579 
22955 7 9.91896 3.02919 17.1449 -5.31734 -4.98172 -12.8179 
20379 9 15.2847 2.79445 15.7908 0.156844 -0.538934 44.1758 
20064 7 14.1234 -1.14846 16.4557 -1.51779 -0.114188 -10.0422 
20098 7 11.4493 4.59278 18.4106 0.935613 0.626933 -2.7626 
20134 7 11.0547 0.917233 18.4119 9.60393 0.071172 0.0134711 
20096 6 11.8017 0.776033 19.0427 -9.84321 -8.655 -3.73597 
20366 9 14.286 2.30262 19.1442 6.45736 4.25018 1.80942 
15278 9 27.9341 28.6411 16.2686 -0.756198 -0.396379 100.633 
17457 7 17.3487 0.108991 18.2087 3.63226 1.80808 -1.78933 
20378 9 15.4007 0.0444891 14.8487 2.35367 64.2815 28.381 
20012 2 15.2359 -1.61828 13.5115 16.9829 -85.1527 73.3113 
17469 5 19.9364 -1.30131 13.4326 -14.4069 -12.7098 -11.7868 
20017 5 16.2815 -1.21496 12.5395 12.3626 -0.850553 -0.121086 
20020 5 16.2894 2.4578 12.6312 3.43375 -4.37522 -1.29873 
17477 1 18.4308 4.50707 12.7514 41.6657 37.0272 59.0837 
17458 1 18.218 0.637135 12.871 38.0781 28.9132 18.1044 
17464 5 19.9587 2.61017 13.0923 -4.65657 -14.6614 -20.6216 
20014 3 15.3481 -0.927596 14.9324 -35.2842 -6.77628 39.1028 
20013 2 15.2355 2.86552 13.6686 24.414 -11.8272 53.8202 
20089 4 15.4847 4.41259 13.8828 -14.6775 21.9907 -19.5657 
17460 2 21.2934 2.30374 13.8302 66.2923 -3.22405 69.6446 
17386 2 21.2555 -0.760946 14.0881 52.1776 137.65 44.1552 
20019 3 15.3181 2.12736 15.1228 -23.7169 -7.04951 73.4247 
17466 6 17.88 0.830349 15.4812 -16.081 -16.1532 19.7109 
17494 7 16.9375 1.12858 15.4668 16.0589 4.2934 -7.53525 
17493 7 18.3771 1.42358 16.0776 2.01804 7.20117 1.3493 
17471 6 18.5802 2.62432 17.538 -16.7441 -20.5454 3.86795 
17510 7 18.3468 2.02876 18.3312 3.93397 5.74291 11.1891 
17509 7 19.5038 2.80411 17.8114 7.30354 0.493136 6.96499 
17463 4 21.2166 0.803669 14.1626 -9.03484 -9.9175 -21.7829 
17508 6 18.3756 4.86206 15.3202 -5.17005 -7.5393 12.8393 
14959 7 20.7295 -0.718133 18.3714 -0.223059 6.54737 14.3115 
14960 7 20.9784 0.771564 18.2273 -1.83213 9.49248 13.4079 
17391 3 21.6822 -1.5633 15.361 -11.0811 -24.8092 -22.319 
17825 9 21.5123 -0.988944 16.1131 -2.32199 0.540393 -67.3387 
17462 3 21.1225 3.16458 15.0875 -19.1476 -25.337 3.84901 
14918 6 20.9863 -0.0205313 17.6973 4.37887 -2.52238 -7.48359 
17826 9 21.5641 2.77769 15.8454 -0.0685289 -0.0439432 6.58845 
17472 7 19.2842 4.53101 15.5263 4.31271 6.08736 -6.82263 
17473 7 17.8945 4.49838 16.086 2.72452 4.52308 -0.866335 
17827 9 21.2378 5.06365 15.2216 -1.2041 26.5913 3.40478 
17583 7 17.8402 3.86012 18.3805 -4.15117 5.73758 -4.26606 
17544 6 17.1917 4.48329 18.8188 -13.1884 -24.0601 1.3856 
20367 9 15.4628 5.55241 19.0365 24.3791 10.5043 16.5081 
17474 7 17.1104 -1.70445 15.6445 4.90279 -5.90535 -6.86302 
17582 7 16.3454 3.93201 18.8604 15.712 14.6468 1.66842 
17456 7 16.4509 0.248799 19.3044 2.01812 6.75307 -7.89753 
17499 3 21.1162 2.47188 19.2064 -15.6714 -20.3015 -11.7103 
17813 9 21.6774 3.25615 19.2964 2.38869 6.57266 -16.3233 
2035 7 -0.382159 13.2651 7.90922 5.89481 0.257487 -2.26067 
15310 7 26.5488 -0.412246 16.4523 -5.30389 4.57037 -14.8183 