ITEM: TIMESTEP
70000
ITEM: NUMBER OF ATOMS
25520
ITEM: BOX BOUNDS pp pp ff
-3.8959205201285124e-01 6.0088135642019459e+01
-1.9452389155355383e+00 5.9115524189537531e+01
-1.2206056431032383e+01 1.1390111600702880e+02
ITEM: ATOMS id type x y z v_stressx v_stressy v_stressz 
25292 7 5.89857 3.03966 7.5916 -2.54997 -8.51664 -6.30211 
25293 7 5.98077 1.53035 7.7064 -1.9569 -5.91989 -2.02296 
25252 6 5.35811 2.25094 7.51796 -6.26414 -3.23223 0.308197 
25287 5 0.61597 0.755495 10.7564 7.88995 -1.34528 5.83155 
25283 5 2.94291 4.2301 9.842 11.0947 6.56727 -12.6483 
25281 4 1.3887 2.44216 9.07367 -12.6977 1.99092 -15.1616 
25280 4 1.07853 5.00258 8.46007 -12.7801 -8.6022 -6.6233 
25277 2 1.45655 3.94107 9.49571 50.8375 34.7395 76.9491 
25215 5 2.99957 0.588718 9.72621 -14.1904 -9.87837 -11.298 
25209 2 1.59287 0.935181 9.44522 8.08845 -59.7233 70.105 
25188 1 4.8243 2.58953 9.97468 5.12109 0.784636 14.3148 
25214 3 0.796635 0.0137284 8.44439 -1.9288 -4.6494 3.85903 
25282 5 0.520916 4.37471 10.6565 -14.7058 -14.599 -18.539 
25458 9 1.40812 -0.435335 7.83607 0.0136851 2.15146 1.75618 
25206 1 4.52732 -1.17961 10.115 34.5525 37.5619 20.2883 
22660 5 6.52822 0.875659 10.2203 -1.31063 -5.64445 -15.3525 
22735 5 6.623 4.87348 10.5536 2.26285 -8.86025 -13.276 
25505 7 1.83983 5.65447 5.50835 -0.0576884 -0.166554 -0.299459 
12509 6 29.4622 24.2591 19.2045 -15.2495 -5.0848 14.7628 
22662 3 7.17647 4.29529 8.22411 -11.8211 -22.909 -18.4804 
22658 3 7.30314 0.346889 7.89736 -14.7433 -15.0593 -10.9788 
22905 9 7.65252 -0.485879 7.46068 0.0146851 -0.420246 -4.49022 
22906 9 7.50322 4.57024 7.35908 -2.82791 4.27331 9.68952 
20115 7 11.1372 2.292 6.49758 0.441518 -0.0125278 -1.16607 
22656 2 7.7059 0.365729 9.40584 21.5901 73.8506 61.0445 
20116 7 12.1136 2.88755 7.40659 19.6306 6.5992 2.64297 
20078 6 11.1398 2.86581 7.23657 -15.898 -11.4615 1.89673 
20106 3 13.741 4.72985 7.46261 -15.5275 -10.7871 42.2962 
22657 2 7.60419 5.1024 9.41016 52.4106 -16.7658 20.3621 
20036 3 13.619 0.47741 7.57109 -16.3445 -19.4139 16.6785 
20107 4 13.6664 2.6833 8.8298 -17.7154 -13.845 -33.9394 
20104 2 13.8784 4.18168 8.97251 30.6793 35.7079 94.2367 
20031 2 13.7132 1.1448 8.96008 61.8727 163.474 14.7811 
20108 5 12.6966 4.70757 9.81807 14.8575 12.0516 1.45622 
20112 5 12.4932 0.846951 9.91178 10.9566 -0.436601 5.48799 
22654 1 10.4859 2.78478 9.68506 11.305 10.1035 11.3106 
22661 5 9.03983 1.11007 9.56315 -7.39036 -6.48277 -16.1448 
22663 5 9.10858 4.7108 9.73761 4.40586 -12.7324 -15.6387 
22563 1 10.886 -1.13469 10.1589 0.573773 -0.675815 0.251711 
22659 4 7.7627 -1.12896 9.68153 -9.29742 -34.5959 -34.5224 
22629 6 11.3751 -1.065 7.76545 -16.7498 5.13268 2.48339 
22669 7 11.9249 -0.207968 7.44815 1.28811 5.18921 -1.27835 
20352 9 13.8605 1.22514 6.87465 0.679474 12.5065 14.6758 
20189 7 14.2777 3.18994 6.51456 0.244453 13.4784 8.42275 
20353 9 14.543 5.23857 7.22704 7.70569 13.166 16.825 
20148 6 14.5671 2.45013 5.87332 0.146095 0.0586087 0.0974373 
22740 7 11.2703 5.5881 6.8279 3.27282 1.46674 -1.18045 
22738 7 8.76742 5.41578 5.90114 -0.694963 0.686688 -1.36548 
22701 6 7.85394 5.37142 5.69312 0.513199 -0.272516 7.90789 
22739 7 7.886 4.86164 4.87022 -0.011302 0.0201793 0.00834088 
22670 7 11.9327 -1.89861 7.72342 1.02752 1.62086 -5.25575 
20188 7 15.4435 2.20345 6.22553 0.808952 -0.141414 0.0871438 
20037 5 15.0057 0.565552 9.66218 -0.87081 -6.80592 -12.9196 
20118 7 17.8719 2.63796 7.70159 5.64502 -0.3918 -3.062 
20117 7 17.6995 1.17882 7.44002 3.00489 2.50516 -4.76732 
17799 9 19.455 -0.241526 7.33338 0.273618 6.56779 17.8463 
20077 6 17.1284 2.01775 7.60787 -23.0872 2.64021 27.2118 
17484 3 19.536 4.02271 8.03155 -4.14871 -2.47799 -2.13348 
20109 5 15.1822 4.68195 9.53593 -5.58794 -7.24667 -17.3243 
17480 3 19.3808 0.510653 7.95906 -16.2101 -31.7033 11.4074 
17478 2 19.7385 0.13463 9.405 32.409 34.115 47.2848 
17479 2 19.7269 4.90401 9.32133 45.7658 112.656 60.871 
17485 5 21.0972 4.45706 9.83859 4.92617 -15.8053 -16.7795 
17483 5 21.125 0.57616 9.92672 5.12562 -10.0126 -13.1764 
17482 5 18.7273 0.612358 10.4453 0.876603 -3.67632 -8.12427 
17560 5 18.5746 4.39351 10.2378 -1.01311 1.70773 -11.7307 
20011 1 16.7883 2.43064 10.1919 49.8551 45.9496 39.0969 
20028 1 16.5417 -1.33752 10.1131 23.6619 16.9266 10.0115 
17481 4 19.613 -1.37684 9.30614 -12.1363 -19.4717 -38.0375 
17800 9 20.2785 3.41394 7.96437 0.286782 -2.92289 -5.53684 
20002 6 16.2002 -1.21507 7.53432 -10.2955 -7.50966 13.6097 
20044 7 15.5857 -0.449442 7.68688 4.24983 8.56056 -2.89684 
20043 7 16.3516 -1.12082 6.60323 0.278826 0.198878 -0.849811 
17377 6 19.8786 -1.6773 6.3322 0.248674 -0.138015 -0.00438511 
17415 7 20.5742 -1.92657 6.98281 2.82059 2.47954 1.92095 
14864 7 23.6314 3.83266 7.75133 5.58233 -4.7141 -1.44712 
14825 6 23.2988 2.969 7.82153 -9.27666 -3.75267 1.34873 
14863 7 24.1611 2.53617 7.90018 3.87432 -1.35306 -0.537808 
17476 1 22.5994 2.5974 10.2549 -65.7914 -41.2919 56.9201 
14928 3 25.5679 4.59148 8.20809 -31.0985 -49.752 -46.7055 
15246 9 24.7065 0.00657495 8.04332 7.90408 10.7521 20.0605 
14856 3 25.5405 0.383335 8.16649 -12.4628 -14.7306 10.6634 
14929 4 25.6618 2.47021 9.27814 -17.6666 -34.8436 -33.6174 
14851 2 25.7726 0.935136 9.6021 19.6843 -190.06 75.7958 
14926 2 25.8313 3.99121 9.61155 27.777 144.897 87.9297 
14857 5 27.172 0.513951 10.0212 -9.50795 -11.772 -20.789 
14931 5 27.2703 4.30837 10.1061 -28.2419 -11.3293 -17.7967 
14832 1 28.9014 2.41808 10.4207 15.4018 11.668 55.962 
14930 5 24.8007 4.37565 10.6576 12.7894 -4.2959 -12.0757 
14934 5 24.7275 0.511689 10.6576 4.8482 -3.74428 -0.340767 
17384 1 22.8636 -1.16741 10.5973 -1.57923 3.80223 -5.60296 
14848 1 28.7231 -1.43222 10.2624 14.8954 18.7752 4.81611 
14898 6 29.1786 2.45721 7.88738 -13.53 -15.2605 6.10879 
15247 9 26.3681 4.66526 7.72718 -1.61938 -1.0981 -15.3075 
14826 6 28.1456 -1.3901 7.71182 1.43369 -3.22592 26.8744 
14861 7 27.5228 -0.59177 7.7367 4.99172 5.83189 -2.24986 
14862 7 28.7608 -1.17174 6.9734 0.154687 0.0363028 -0.0712724 
17565 7 23.8543 5.62398 7.62904 12.5051 3.71483 -1.58072 
17491 7 23.3409 -0.830267 7.25909 0.0949783 0.0683281 -0.469584 
12347 6 29.4782 5.3719 8.00631 -15.0923 -7.08006 4.45778 
14939 7 29.2544 3.33895 7.63004 0.435415 -0.925251 -1.20592 
17492 7 24.1978 -1.77871 8.08715 8.12026 2.38078 -6.22243 
17450 6 23.2929 -1.42611 8.02021 -21.474 -6.81741 19.0169 
25291 7 5.22591 6.53661 7.32751 1.14474 1.62426 -3.21754 
25290 7 3.82687 6.55555 6.86919 -0.723031 1.62387 -4.43202 
25253 6 4.33607 6.71227 7.63615 -9.43161 -11.4571 2.36067 
25517 7 1.84279 7.29014 5.50902 -0.0279139 -0.0645814 -0.553404 
25313 6 1.21101 6.45671 5.78137 6.12369 -4.89525 30.3151 
25362 7 1.19888 10.608 6.31952 -0.0206785 -0.0232344 -0.0171805 
25275 1 4.36027 6.50413 10.1833 2.87188 12.0923 4.92845 
25278 8 0.639374 6.49188 7.63496 52.8357 31.4752 9.68091 
22958 9 3.89074 10.3239 7.2783 -3.50107 1.47223 0.261706 
22732 3 4.70032 10.3548 7.96195 2.48571 -12.5277 13.6209 
25359 5 0.701437 8.49354 11.0939 -9.73794 -10.6309 -16.761 
25356 5 3.08021 12.146 10.2169 9.99415 0.261537 -13.0121 
25355 5 0.535314 12.2845 10.6518 -2.69302 -5.34597 -8.6094 
25354 4 1.48185 10.2856 9.54639 -13.5296 13.9842 -26.6352 
25353 3 1.39194 12.6945 8.41831 -12.1063 -7.64528 4.9902 
25351 2 1.63225 11.8296 9.72046 40.5125 48.4845 66.9346 
25286 5 2.93236 8.28049 10.0288 -5.62205 -16.227 -19.2088 
25285 4 0.892127 7.85648 8.74192 -20.4562 -18.4009 -4.4092 
25279 2 1.49492 8.71367 9.83417 15.1209 98.096 76.4737 
25259 1 4.86194 10.2149 10.3927 8.02437 9.03293 56.2123 
25327 6 1.60703 9.7444 6.34125 2.39605 1.52085 -0.862997 
25363 7 1.38635 9.50649 7.2315 0.425084 2.54994 1.3952 
22807 5 6.5607 12.2849 10.8694 -15.7598 -14.2875 -18.37 
22730 5 6.65234 8.34528 10.5398 -4.54235 -14.7916 -14.2006 
22726 8 6.48614 10.4372 7.49213 -1.88358 17.749 -26.0602 
22761 6 7.05704 10.8316 5.66761 1.80577 2.54631 6.86444 
22733 4 6.9844 11.7221 8.61372 -10.8306 -12.6435 -2.60312 
12583 6 27.4327 26.739 17.5859 2.56224 1.29493 -4.27824 
22728 4 7.23016 9.05362 8.29312 -12.7558 -20.2324 -5.85989 
22953 7 7.91026 10.1976 5.3838 -0.0668491 0.0989941 -0.653814 
22965 7 7.33207 11.8331 5.45166 -0.04988 0.140886 -0.277827 
22741 7 11.5 7.01103 7.05421 2.59325 -0.0429894 -1.55564 
22700 6 10.8104 6.36788 7.23855 -16.0619 -1.98847 18.3302 
22636 1 10.9188 6.69179 9.82281 4.09563 9.10997 12.5445 
22729 4 7.48133 6.61374 9.11192 -10.9797 -8.61545 -27.7094 
22668 7 10.5831 8.59932 7.42923 1.88168 4.32138 -3.15649 
22725 2 7.70374 8.13304 9.39568 25.7182 31.6477 97.5649 
22727 2 7.53968 12.6129 9.75953 16.0895 132.79 81.0446 
22630 6 10.7174 9.56513 7.55044 -8.12246 0.815109 5.32044 
22667 7 11.6785 9.56 7.58776 1.2524 0.714801 -1.32127 
20110 3 13.3722 8.00482 7.87861 -10.7646 -1.08435 -3.93894 
20176 4 13.3404 12.979 8.33811 -6.53445 -6.88532 -4.00819 
20177 4 13.5478 10.5013 8.95979 -6.08172 -0.202712 -16.3411 
20173 2 13.7057 11.9908 9.40771 32.8098 -5.58743 76.8356 
20105 2 13.7244 8.93675 9.12343 -3.29744 6.45905 85.4779 
20178 5 12.5598 12.2564 10.4158 -7.79719 -12.5435 -22.6931 
20183 5 12.8988 8.51128 10.3587 -3.69317 -11.0092 -7.61794 
22734 5 8.97942 12.4092 10.1072 -12.2372 -12.5097 -17.5117 
22723 1 10.5486 10.4168 9.97488 -2.90531 3.98789 10.1862 
22731 5 9.11607 8.33188 9.85191 -15.5523 -24.3998 -22.6288 
20354 9 13.8366 7.1662 8.02076 -1.26704 -12.3456 -25.3876 
17489 7 15.3685 7.53149 7.27379 -6.23865 -2.28526 -3.77944 
17490 7 16.4114 7.08597 6.51817 -0.226009 0.0328435 -0.312394 
17451 6 15.9423 6.78743 7.29642 -18.5529 -17.1298 17.5228 
17555 4 19.5148 6.40419 9.24816 -10.6277 2.44963 -18.7276 
20102 1 16.4765 6.46221 9.86905 10.9322 0.135316 19.0217 
20179 5 15.0791 12.3713 9.86379 2.86399 3.85877 -11.673 
20111 5 15.0953 8.51182 9.52882 -26.1611 -13.8747 -15.2724 
17802 9 19.4832 11.878 7.51898 -0.111331 -0.101613 0.166377 
17554 3 19.6317 8.68088 7.9737 -1.8301 -5.28632 6.10827 
17801 9 19.3812 9.57046 8.10065 0.599118 12.1303 6.39306 
17558 3 19.3121 11.5602 8.35726 -4.00715 -1.96336 -0.577561 
17552 2 19.7279 7.97853 9.40881 24.4287 57.4606 61.3477 
17553 2 19.7446 12.5897 9.5152 42.5152 42.6671 69.8052 
17559 5 21.2085 12.1329 9.83297 7.02013 -0.425077 -11.0277 
17557 5 21.1128 8.33065 9.93016 1.04307 -11.4591 -16.0799 
17556 5 18.49 8.44005 10.194 12.4638 -3.95868 -8.3344 
17631 5 18.754 12.2185 10.6826 1.97394 -5.41539 -4.5235 
20084 1 16.8199 10.2664 10.3615 -10.854 -4.14836 -1.06391 
17566 7 22.7737 6.49197 7.09029 0.0933478 0.0179133 0.050666 
17525 6 23.2369 6.30614 7.97014 -29.817 -5.82907 17.3629 
15249 9 26.4199 12.3989 7.50271 0.839127 0.680773 0.247445 
14924 1 28.8784 6.30371 10.2599 25.2686 20.2386 10.7835 
17459 1 22.8153 6.36449 10.4136 -83.6577 -68.1818 28.7562 
17550 1 22.6813 10.1773 10.109 18.8663 17.6219 8.43615 
15248 9 25.0074 7.30471 8.25379 6.69463 8.83462 8.75038 
15002 3 25.5553 12.1132 7.86039 -4.73806 -8.7073 8.93573 
14932 3 25.8534 7.69566 8.37038 -4.58609 -4.15471 1.31043 
15003 4 25.6929 10.0578 9.40228 -8.92839 -5.83057 -24.012 
15000 2 25.8234 11.5586 9.33827 28.8693 102.149 75.8937 
14927 2 25.9265 8.52626 9.67582 38.8036 66.046 74.996 
15005 5 27.2586 12.0307 9.65026 -1.53003 -12.655 -17.7826 
14933 5 27.3368 8.19806 10.2714 9.69826 -13.9141 -17.7164 
15004 5 24.794 12.1885 10.2281 0.93408 2.90903 -13.8138 
14907 1 29.0423 10.186 10.3202 23.5244 18.3717 23.6642 
15008 5 24.7476 8.17989 10.6591 15.8491 -0.204797 -2.71649 
14899 6 29.4402 9.94521 7.67407 -3.20469 0.0608315 5.45556 
17637 7 24.0129 13.1402 7.48134 1.60489 0.646062 -0.192668 
25427 5 0.471403 16.2254 10.9577 6.35539 -3.49584 -3.89005 
25424 5 3.05777 19.7432 10.2643 -14.9305 -6.27036 -10.0937 
25423 5 0.62854 19.9386 10.7649 4.099 -4.32362 -10.9561 
25422 4 1.53223 17.8586 9.5283 -9.48585 7.27071 -14.1525 
25421 3 1.35286 20.1653 8.46116 -3.20201 -2.53585 -0.0211314 
25419 2 1.68921 19.4163 9.80763 -42.2825 139.261 65.9125 
25358 5 3.0433 15.9649 10.3935 6.05846 -1.22589 -11.5398 
25352 2 1.62447 16.359 9.9389 55.5952 2.49079 36.303 
25333 1 4.76049 17.9652 10.8964 -6.18619 13.3239 -34.8604 
25357 3 1.27516 15.4524 8.77037 -12.0315 -17.6868 19.4281 
25460 9 1.6173 15.8283 7.87293 0.0904081 0.360589 4.28172 
25349 1 4.58657 14.1062 10.6957 7.52217 16.49 1.13192 
22803 5 6.49129 16.0975 10.8756 1.18427 -0.72734 -2.34916 
22875 5 6.46084 20.071 11.1158 20.1921 8.14005 10.1205 
25459 9 1.48999 13.6574 8.56205 -1.14618 5.18178 -4.40234 
22801 3 7.03055 16.5942 8.55987 -2.08893 -6.81803 4.59292 
2179 7 -0.387305 20.8468 8.22815 14.3133 2.07277 -6.66705 
22805 3 7.32975 19.3599 8.91011 -8.30487 -8.59569 26.475 
22908 9 7.54595 19.9046 8.12021 0.00470077 0.259082 6.53406 
22774 6 7.84223 14.1301 6.46407 2.09839 1.31578 1.83816 
22907 9 7.21638 17.5067 8.66763 -0.141528 20.2072 1.5404 
22800 2 7.69826 20.1918 10.1825 71.6729 58.0124 37.4323 
22810 7 9.52718 17.6319 7.67339 -2.04982 0.931097 -2.0366 
22775 6 10.3724 17.5576 8.1234 -17.9534 -8.84619 6.806 
22811 7 11.0269 17.744 7.42304 6.06153 1.02456 -1.26292 
20249 3 13.6146 20.1923 8.5115 -17.2747 -15.7944 19.6047 
22799 2 7.50164 15.6895 9.76752 0.466991 20.0138 70.1297 
20181 4 13.1648 15.598 8.7498 -9.5185 -31.9562 -11.648 
20250 4 13.59 17.8559 9.69511 -13.6609 6.85976 -27.7172 
20247 2 13.6446 19.4223 9.89672 2.52493 28.4683 69.9728 
20175 2 13.7411 16.3389 9.95052 44.4269 115.656 88.9883 
20255 5 12.7826 16.0392 11.1348 -2.73079 -11.2236 -16.679 
20251 5 12.5994 19.887 10.8751 -0.420883 -0.16547 5.11284 
22797 1 10.5866 17.8329 10.6706 3.39511 -1.53681 16.151 
22804 5 8.85928 16.0465 10.2629 -4.38424 -10.871 -14.3761 
22806 5 9.15709 19.6726 10.6518 26.478 -12.4616 -11.3954 
20209 6 12.874 15.0323 5.7533 0.493411 -0.353036 1.52634 
20174 8 12.7095 14.4625 7.54514 27.2421 10.8059 -54.2125 
22802 4 7.35344 14.1712 9.46207 -20.6695 9.36198 -28.7169 
22707 1 10.7485 14.2517 10.2767 12.2408 10.5572 -4.63872 
20180 3 10.8086 14.0423 7.95232 18.254 -8.77978 5.16265 
20260 7 13.0324 18.8856 6.99744 0.124686 1.32598 1.23237 
20261 7 12.9162 17.3666 7.33817 -0.566548 10.5911 5.56711 
20401 7 13.4229 15.9899 5.62814 -0.164628 0.311849 -1.28575 
20406 9 10.0189 14.4108 7.4707 -1.2904 2.82319 -2.44629 
20413 7 11.9327 15.1884 5.26927 -0.0687738 -0.0248786 -0.439459 
20222 6 12.7014 18.0477 6.67459 -0.735287 0.719986 -0.934078 
22813 7 7.7456 15.0607 6.62462 -0.0749343 -0.0513366 0.0672068 
22812 7 7.44152 13.8113 7.30537 0.684141 1.41148 6.48264 
17861 7 18.0327 18.1656 5.18632 -0.0416389 -0.0258489 -0.195358 
17849 7 19.1146 19.332 5.5722 -0.0534867 0.151834 -0.564527 
17657 6 18.7692 18.3451 5.88217 -4.81647 -2.62645 15.0933 
20252 5 14.9691 19.7344 10.5394 -8.15505 -13.5937 -18.2334 
20182 5 15.2166 16.0409 10.213 -3.93674 -20.4629 -14.4107 
17622 8 18.5634 18.0799 7.75046 31.9602 27.6452 -14.6105 
17854 9 15.9449 18.6012 8.0719 -0.346831 1.97473 -3.33687 
17628 3 16.7563 18.0742 8.25458 4.20764 -9.87181 9.74819 
17624 4 19.3217 16.6826 8.46567 -7.74762 -11.4707 -3.52502 
17629 4 18.9827 19.4332 8.85904 -13.4413 -12.0621 1.86106 
17621 2 19.6951 15.6526 9.54627 45.9609 94.6852 82.5656 
17623 2 19.5501 20.2671 10.0023 52.8727 24.8351 75.8745 
17630 5 21.0316 19.7719 10.2793 12.4814 -2.59071 -15.4272 
17627 5 21.1919 15.89 9.96206 1.19869 -17.652 -17.0273 
20155 1 16.8424 17.9752 10.6946 -0.714805 10.5631 -76.4388 
17626 5 18.7672 15.8963 10.7355 -8.75346 -8.82167 -12.7837 
20171 1 16.7158 14.1373 10.3208 5.59496 6.83504 -3.04551 
17625 4 19.606 14.0957 9.12525 -5.99448 7.92933 -11.843 
17564 7 21.4906 17.2833 7.58657 -0.601413 1.53542 -1.20231 
17703 5 18.6795 20.0258 11.2014 -15.2238 -12.4708 -21.4897 
17709 7 19.905 20.6273 7.34679 2.86916 4.89433 4.31082 
20259 7 15.568 20.8847 8.4035 12.1565 3.46717 -2.3653 
17526 6 22.4132 17.452 7.70597 -7.55545 -6.54223 17.9214 
17563 7 22.8092 16.6576 7.3521 0.254178 0.335332 -1.88265 
17619 1 22.5682 17.9268 10.3236 11.056 12.5637 -11.6888 
15250 9 25.4259 16.554 7.3496 3.18366 4.16319 70.3858 
15006 3 25.6058 15.7572 7.92658 -17.1364 -12.1225 55.7235 
15072 4 25.3173 20.4252 8.40544 -12.7618 -7.7189 -2.38355 
15073 4 25.9599 17.9542 9.15621 -15.6309 6.30699 -34.4277 
15069 2 25.8295 19.4844 9.52152 46.2376 195.814 66.2444 
15075 5 27.2671 19.8707 9.91392 5.13756 -3.95936 -14.4091 
15001 2 25.8934 16.4473 9.39988 31.4712 21.6686 32.5455 
15007 5 27.2951 15.9854 9.7832 -0.596291 -10.4653 -15.9805 
14980 1 29.1857 17.8209 10.1444 -13.2151 -20.9384 15.7349 
15074 5 24.8028 19.6389 10.6176 -5.83642 -5.19017 -19.4158 
15079 5 24.8396 16.1163 10.4638 8.79135 -3.37324 1.15605 
12533 7 25.4571 18.3754 7.23091 -0.468588 4.4023 5.97945 
17532 1 22.9834 14.1035 10.1761 9.22817 11.7477 8.77324 
14998 1 28.6373 13.9834 10.0874 19.8183 24.4885 13.8616 
12492 6 25.1645 17.9196 6.43544 -1.25752 -1.70069 -0.953192 
12532 7 24.2391 17.8074 6.45162 -0.0736133 0.00787872 -0.221172 
17636 7 24.2982 14.6547 7.77674 3.08637 -4.73499 -4.59159 
17597 6 27.3956 19.7327 6.47718 -16.2015 -0.962371 0.922282 
17635 7 27.0344 19.9354 7.31032 6.25984 1.13082 -2.41733 
17596 6 23.5563 13.9987 7.66239 -11.3517 -1.54675 4.59228 
14974 6 28.7308 14.0837 7.53935 -5.58916 -10.8544 7.55949 
17634 7 26.9707 18.9124 6.11254 0.285249 0.567484 -0.14998 
15084 7 28.6931 18.2675 6.90767 0.572142 2.75958 -1.53226 
15012 7 28.1952 14.867 7.30744 1.75464 1.79226 -1.77712 
15044 6 29.2899 17.8272 7.55162 -18.2915 -15.2022 14.455 
15011 7 29.5706 14.1102 6.99075 5.03516 0.869257 -0.299671 
25461 9 1.63963 21.1191 8.56579 -0.454967 8.99868 -6.08735 
25417 1 4.459 21.7465 10.9217 -16.9964 -19.9813 -11.8773 
24923 5 0.754769 27.5218 10.9484 6.06673 2.03969 -1.95589 
25425 3 1.35108 22.98 8.77836 -10.5232 -8.14807 18.6494 
24927 5 0.559259 23.61 11.1153 15.6756 -1.61414 8.11407 
25426 5 3.10363 23.8017 10.4009 3.654 -9.33486 -9.15749 
25420 2 1.64879 23.9265 10.0018 35.5569 97.5761 58.5475 
25401 1 4.97038 25.5329 10.7242 11.9294 4.85261 2.20365 
24924 5 3.18735 27.1766 10.4054 -6.03454 -5.87348 -13.7155 
24922 4 1.38256 25.4386 9.75254 -16.3755 10.6028 -16.8652 
24919 2 1.7823 26.9563 9.95451 0.426493 143.516 60.2663 
24921 3 1.55556 27.7248 8.56562 -3.22789 -0.888101 8.22597 
25462 9 1.60156 23.3783 7.96981 -0.0564073 0.116787 1.81095 
22871 5 6.64021 23.6959 10.9095 4.84243 -4.69556 -4.51383 
25451 9 2.36751 27.8615 8.13061 0.0505999 0.479602 1.55636 
22375 5 6.78156 27.3777 11.2762 2.33514 -3.82669 -3.67119 
20355 9 13.7553 21.1037 8.67011 -2.69867 21.2467 -0.738503 
22873 3 7.36095 26.8242 8.94079 -1.75265 -2.69216 23.0346 
22910 9 7.83453 27.1872 8.16884 0.0170082 0.299635 5.20059 
22881 7 10.5673 22.2037 7.78641 0.172629 0.144206 -0.597561 
22880 7 12.0072 21.7432 8.22322 12.0256 4.38334 -4.55116 
22869 3 7.56442 24.0265 8.5961 -0.842259 -1.26977 0.774712 
22842 6 11.0399 21.8185 8.50693 -11.4458 -8.50015 2.44558 
22909 9 7.42422 24.9915 8.72358 -0.308581 9.44944 -0.738142 
22870 4 7.80675 21.6814 9.76784 -9.79755 13.0069 -14.3347 
22781 1 10.8959 21.6885 11.0129 -25.9002 -19.432 22.0791 
22868 2 7.76545 27.7412 10.1816 37.164 96.9299 37.9782 
22867 2 7.78902 23.2324 9.92461 53.8566 189.648 70.5039 
22381 7 12.0152 26.341 8.4485 11.0378 9.12938 -1.40582 
20253 3 13.4682 23.4016 8.82795 -29.1217 -27.5058 6.25335 
22380 7 10.8121 26.2531 7.54966 0.073127 0.106025 0.103005 
22342 6 11.2091 25.8188 8.3988 -19.2612 -2.61837 29.7966 
20317 3 13.3219 27.8427 9.08682 -10.263 -12.885 -7.83246 
20248 2 13.7696 24.0294 10.2263 7.46893 2.94494 110.606 
20318 4 13.624 25.5447 10.0164 -29.0662 -18.813 -43.5473 
20315 2 13.7788 27.0543 10.3348 51.3874 -15.2121 82.8372 
22865 1 10.6865 25.3992 10.9226 11.9619 11.0078 7.04191 
22872 5 9.17462 23.6871 10.462 5.40864 -15.4796 -13.7964 
22874 5 9.24947 27.6706 10.5948 6.89894 -9.52806 -9.59693 
20356 9 12.5954 23.6209 8.49206 10.2487 3.83815 -9.78741 
25431 7 14.1509 26.52 7.83751 1.05428 4.71193 6.78138 
20323 5 12.8525 23.6161 11.429 2.22211 -7.67736 1.53689 
25430 7 14.093 24.9955 7.86813 1.6412 4.69216 10.5232 
25395 6 14.4016 25.7329 7.27378 -0.136505 0.0926248 -0.160211 
20258 7 15.2294 22.3163 8.12146 1.32504 0.102752 -1.43644 
20223 6 16.0015 21.7513 8.2238 -7.25156 -1.17626 9.14948 
20245 1 16.5342 21.695 10.8038 16.3084 20.5311 28.2476 
17698 4 19.4354 21.7483 9.56107 -11.8206 -3.71584 -28.5499 
20320 5 15.2214 27.4242 10.856 4.63117 -11.101 -14.8574 
20254 5 15.1801 23.5949 10.561 -15.9638 -11.4348 -20.7588 
20329 7 17.2434 26.6466 8.28058 3.98825 3.1868 -3.62975 
20328 7 16.0419 25.8023 7.61998 1.69776 -0.0222368 -0.0755771 
17803 9 18.6355 24.4714 8.19816 9.09787 9.20155 -0.616099 
20290 6 16.6573 25.8385 8.42977 -26.9765 -4.55209 8.27549 
17697 3 19.4666 23.9299 8.24968 -7.19683 -15.3642 7.29373 
17701 3 18.7572 27.5768 9.07536 -11.0612 -29.2912 -2.69366 
17695 2 19.6311 23.298 9.64847 1.13771 5.05361 78.3556 
17696 2 19.6976 27.9701 10.2409 33.7069 99.6788 90.428 
17700 5 20.9899 23.6351 10.1729 -17.3055 -7.4816 -18.9127 
17702 5 21.0953 27.3466 10.1236 7.85749 -13.4219 -20.7834 
17699 5 18.7076 23.7838 10.7613 -2.98473 -4.05405 -1.67327 
20229 1 17.0048 25.6018 10.9426 18.3915 14.8573 -13.9111 
17708 7 20.0702 22.1005 7.0657 -0.25974 1.37962 0.748528 
17670 6 20.1319 21.2549 6.64674 -0.723476 0.878898 -1.21557 
17707 7 20.7868 25.2363 7.6314 4.66371 4.89608 -0.0832116 
17706 7 21.1787 26.5559 8.43819 0.129235 6.48172 6.81208 
17671 6 21.5933 25.7538 7.94146 -0.326413 -4.63458 5.47825 
17804 9 18.1596 28.2261 8.79174 4.24822 -0.403003 -3.17832 
15302 9 22.12 22.0167 7.2663 -10.7815 2.2611 -0.693219 
15082 7 28.9341 21.4367 6.98265 -0.145707 1.8987 -3.1042 
15309 7 26.1711 21.1856 5.56242 -0.0524393 0.352985 -0.578535 
15297 7 25.7773 22.9358 5.36905 0.0241753 0.421155 0.0416601 
15076 3 22.8653 21.7306 7.945 5.24181 -10.1652 6.89799 
15105 6 25.4296 21.9972 5.7434 2.53817 2.83231 8.65034 
15067 1 28.5009 21.8246 10.3102 7.52491 13.9531 32.0315 
17603 1 22.8719 21.8054 10.3091 41.2679 30.4096 61.6768 
15070 8 24.6898 21.8654 7.53391 8.41252 21.7917 -6.11668 
15157 7 24.761 24.7113 6.5409 0.0748399 1.38662 -2.23766 
17693 1 22.4585 25.6458 10.3024 35.1166 46.8626 57.3711 
15118 6 24.3516 25.0692 5.80024 0.217139 -0.0137978 -0.0792383 
15156 7 23.4675 25.4068 6.08223 0.347604 0.0645847 -0.0168079 
12750 9 28.7793 27.0604 8.02173 -18.193 -1.3435 -3.59551 
15145 3 25.8709 28.1424 8.32624 -24.8226 -9.96641 24.0758 
15077 4 25.2347 23.1977 8.50469 -14.6182 -21.6682 -11.5706 
15146 4 25.5466 25.6818 9.29943 -7.52788 17.8788 -15.5887 
15143 2 25.8227 27.2278 9.63665 33.0885 57.4864 42.4396 
15071 2 25.6377 24.1622 9.58877 41.3013 136.974 68.5328 
15078 5 27.0823 23.775 9.8664 3.40307 -1.54069 -12.3132 
15148 5 27.2019 27.5255 10.2775 11.3283 -13.1716 -15.7919 
15051 1 28.9278 25.6837 10.4438 0.355983 13.0268 41.2971 
15147 5 24.7278 27.7419 10.5663 4.11875 -1.69197 -8.22386 
12524 3 29.1596 26.0649 8.01414 -11.2039 -1.20971 9.07518 
15045 6 29.2043 21.7754 7.82857 -18.466 -10.904 5.54767 
15251 9 25.5134 27.6474 7.63837 -0.097729 -0.301104 15.5301 
15151 5 24.6677 23.8201 10.7274 -4.49789 -8.17493 -14.8914 
25272 7 0.853664 4.24202 16.109 4.47041 0.586079 5.43705 
25198 5 4.5419 2.55475 12.6561 -15.2688 -8.61118 -10.5892 
25195 5 4.3158 -1.09258 12.7632 -0.0553082 -2.86038 2.55643 
25511 9 -0.0559779 1.31037 16.1949 -13.8419 5.38851 -0.395918 
22635 1 6.05896 0.692999 12.8525 -1.1536 8.18686 -9.66797 
25268 5 2.06322 2.89899 12.9931 0.661265 -9.73617 -22.9802 
25258 1 0.250924 4.4912 12.7638 14.4493 9.16937 10.5849 
25207 1 0.476342 0.786529 13.0733 18.3396 44.5993 24.8946 
25191 2 3.47612 3.03985 13.5769 18.6534 22.551 71.6383 
25263 4 3.57926 4.53329 13.9916 -24.4543 -3.95385 -27.983 
25197 4 3.26023 2.0922 14.7531 -8.35074 -22.824 -9.3443 
25192 4 3.04502 -0.482259 14.848 -4.98919 -2.07094 -2.56297 
25196 3 0.666324 1.03138 15.4046 -15.9493 -16.9622 13.1686 
25190 8 2.3967 0.936476 15.775 -3.77305 50.5116 34.2431 
25240 6 3.40011 0.742015 17.4856 12.6973 3.37084 44.3481 
25519 7 3.48143 1.67994 18.0632 1.77718 13.8668 10.6223 
25507 7 3.22656 0.0369375 18.2443 1.19557 10.5583 21.8952 
22649 6 4.46011 4.84894 17.126 -15.1535 -8.11942 -20.9411 
25308 6 0.225087 4.42353 15.3873 -15.14 -2.69663 21.6317 
25270 6 1.63664 3.66535 17.8479 1.65106 -3.84766 -14.7361 
25310 7 2.21863 3.24939 18.4601 -0.598707 2.74153 -0.728748 
22655 1 6.37544 4.67075 12.8239 4.79235 16.841 7.73951 
25194 5 1.89442 -1.62182 13.1754 -0.119791 -12.763 -19.4854 
25189 2 3.31878 -1.5892 13.8009 41.6093 110.21 98.3354 
25309 7 0.733229 3.82949 18.2559 20.063 1.73565 -0.495516 
22683 6 6.0982 0.518623 15.3784 -5.80272 -5.70934 -2.54637 
22650 7 6.60867 1.02265 16.0371 -0.811481 4.03855 2.15784 
22684 7 3.85057 4.15027 17.2968 3.21348 -4.47089 -1.49063 
22644 3 6.96928 4.95511 15.2353 -3.01237 -7.37272 13.8947 
22651 7 5.18042 0.89719 15.5574 11.4839 5.37652 -1.44273 
22959 9 6.5576 5.72084 15.8154 -27.1535 -4.69947 -1.63466 
22759 7 5.35195 5.00555 18.6544 2.71632 1.53232 8.99905 
22687 7 6.68517 0.769519 18.6393 3.34749 8.34382 5.42029 
22685 7 4.00091 5.28771 16.4196 1.97885 0.576557 -0.607212 
25236 7 0.947476 1.11452 18.8375 5.42237 5.76854 -4.06036 
15277 9 27.755 25.7678 16.1431 -0.242077 6.63069 48.6094 
20061 7 8.01936 2.32599 18.2937 5.41179 4.10285 18.6433 
20023 6 7.55301 1.68084 17.6554 -12.6765 0.894399 -15.6861 
20022 6 13.1297 -1.68006 17.0462 -12.4588 -5.83152 6.38815 
20062 7 8.24321 0.961841 17.4673 9.11437 9.32306 -1.8178 
20101 7 10.3816 0.0974396 17.4575 3.62959 -2.98107 1.35891 
22931 9 9.60562 -1.09917 15.7589 -0.213578 -0.516352 77.4616 
22643 5 10.3472 2.57234 12.1955 -2.39048 -4.98868 -7.81542 
20083 1 12.0539 4.57824 12.2941 11.266 5.98164 20.8947 
22642 5 7.78438 2.32799 12.6693 -0.408876 -5.60684 -18.6691 
22572 5 10.3915 -1.19034 12.4814 -0.218204 -8.15001 -6.10918 
22647 5 8.01803 -1.15376 13.3887 6.40066 -14.2913 -20.199 
20029 1 12.4935 0.818447 12.5759 0.478567 4.30491 -6.68965 
20095 5 13.8672 2.81253 13.0198 -11.0635 -12.2833 -14.0616 
22637 2 9.23854 2.21284 13.1776 42.2124 127.759 71.0524 
22565 2 9.47766 -0.798971 13.6553 43.0058 40.7319 45.5171 
22641 4 9.6135 0.790931 13.697 -20.8207 18.5224 -24.0704 
22640 4 9.10375 3.21619 14.2882 -8.22217 -17.4129 -8.16333 
20060 6 12.3467 0.641199 15.2145 -8.41794 -9.77976 20.0577 
20025 7 11.4225 0.497719 15.4748 7.65778 2.65533 -3.37935 
22638 8 8.75726 4.51346 15.4885 -33.5443 2.79924 -35.5222 
20024 7 12.8484 0.311483 15.9782 2.42487 4.55458 -1.99429 
22688 6 9.90965 4.25943 17.0408 1.20927 -2.29681 8.04582 
20130 6 9.50117 -0.240496 17.2095 -10.8651 -23.0744 -40.2094 
20016 5 13.8732 -1.10957 13.0216 2.17763 -14.6405 -19.6353 
20100 7 9.34746 -0.797028 17.9601 -9.16757 -3.1521 18.2803 
22967 7 9.57681 3.38597 17.6092 -3.83982 -8.92762 -22.5046 
22571 3 9.9024 -1.57469 14.9432 -31.5095 -21.2238 11.6663 
22955 7 9.94523 4.93717 17.8194 -2.18626 -5.74235 -10.6209 
20064 7 13.8761 -1.50317 16.4148 10.2931 -3.17562 3.11436 
20379 9 14.2802 2.10702 15.3679 -1.15754 -1.15224 -28.6938 
20134 7 12.5075 -0.151476 18.3495 8.94022 2.77661 3.14157 
20098 7 11.9142 5.00434 18.5835 1.75288 0.856675 -5.08034 
20096 6 11.9452 0.480876 18.8538 -16.0074 2.54798 30.4971 
20063 7 13.6091 -2.25403 17.7165 9.62601 13.5674 1.46884 
20378 9 15.4007 0.0444891 14.8487 2.21208 70.5092 24.0044 
20012 2 15.2359 -1.61828 13.5115 15.5377 -2.84918 72.5357 
17469 5 19.9364 -1.30131 13.4326 -5.16771 -12.1612 -13.5185 
20017 5 16.2815 -1.21496 12.5395 6.99492 -0.913748 -7.84055 
20020 5 16.2894 2.4578 12.6312 -10.6208 -7.43883 -12.3157 
17477 1 18.4308 4.50707 12.7514 41.8033 38.4136 58.1531 
17458 1 18.218 0.637135 12.871 41.3323 30.4711 21.0065 
17464 5 19.9587 2.61017 13.0923 -4.05023 -13.7126 -13.6301 
20014 3 15.3481 -0.927596 14.9324 -24.6012 -4.93798 34.4585 
20013 2 15.2355 2.86552 13.6686 9.28375 -6.02913 55.475 
20089 4 15.4847 4.41259 13.8828 -22.5608 -15.2699 -28.0541 
17460 2 21.2934 2.30374 13.8302 56.1373 87.374 85.096 
17386 2 21.2555 -0.760946 14.0881 56.0413 129.846 17.6892 
20019 3 15.1954 2.08073 14.9992 -4.94192 -21.7353 -11.2138 
17466 6 17.7931 0.570329 15.5876 -8.99401 -8.97321 33.9248 
17494 7 16.9527 1.17279 15.5218 27.7359 11.3162 -4.90534 
17493 7 18.1993 0.744037 16.4063 2.07547 3.34763 -6.33652 
17471 6 19.0903 2.89539 17.0658 -15.5399 -18.6833 7.80606 
17510 7 19.8003 2.82578 16.3716 14.1989 3.84381 8.35824 
17509 7 19.4848 2.75889 17.9006 4.70058 2.76466 -1.03578 
17463 4 21.2166 0.803669 14.1626 -10.6907 1.55274 -25.2946 
17472 7 18.0586 3.86982 15.7644 5.70693 14.7675 3.08417 
17508 6 17.9434 4.7568 15.2758 -5.22622 0.731136 7.90356 
17473 7 16.922 4.81342 15.2196 13.4853 -0.276076 -2.47528 
14959 7 21.1623 0.411841 18.2258 -4.26185 4.05431 -1.73478 
14960 7 21.8297 1.20096 17.2454 -2.5073 4.15858 -4.43319 
17391 3 21.3438 -1.46806 15.441 -15.6167 -21.2982 0.651838 
17825 9 21.3528 -0.759129 16.1613 -0.637649 13.8582 26.3103 
17462 3 21.3969 3.03345 15.1688 -27.9202 -31.0237 -1.57366 
14918 6 21.8306 0.303253 17.579 -8.46174 -10.8401 -7.16538 
17583 7 17.2178 4.30738 18.2882 3.75507 2.54691 -1.79626 
17827 9 20.9907 5.13926 15.2083 0.820608 17.1293 -17.3823 
17474 7 17.2843 -1.72236 15.5724 11.3172 5.89002 -5.97699 
17544 6 17.2096 4.92371 19.0384 -13.5093 -2.68759 1.75568 
17457 7 16.668 -0.559385 19.2555 6.56881 7.79448 -2.0047 
17503 6 17.1032 0.374677 19.1744 -24.6232 6.93434 6.8025 
17499 3 21.0833 2.78366 19.1696 -10.5145 -22.1244 5.78156 
20366 9 15.8263 2.88531 19.504 -1.93507 4.28134 -17.8772 
17813 9 20.9263 3.69892 19.2394 -1.44952 10.0599 -7.34306 
17826 9 22.2581 3.39831 15.328 9.75727 4.48911 -1.18323 
15052 2 27.5103 21.1728 13.8035 47.345 50.3855 69.0288 
12292 7 29.3966 1.49002 15.8786 17.5771 3.44881 -3.33891 
12371 7 29.2511 4.23405 16.1797 11.6284 2.90882 -2.77977 
17392 5 22.3788 -1.113 13.0479 11.4329 -0.475176 7.28081 
15272 9 28.1978 -0.285031 15.1246 2.08717 10.8038 3.06115 
14833 2 27.436 -1.7351 13.7653 0.201009 -99.9969 70.3521 
14837 5 26.0685 -1.25524 13.3193 -6.30954 -13.2917 -19.5727 
14835 3 27.629 -1.0483 15.1585 -14.9145 -25.2562 -5.87074 
17465 5 22.4822 2.65522 12.8638 1.38449 1.25108 1.9266 
14838 5 28.4591 -1.17305 12.8109 -6.47734 -7.69432 -14.4811 