ITEM: TIMESTEP
340000
ITEM: NUMBER OF ATOMS
25517
ITEM: BOX BOUNDS pp pp ff
-3.8959205201285124e-01 6.0088135642019459e+01
-1.9452389155355383e+00 5.9115524189537531e+01
-1.2206056431032383e+01 1.1390111600702880e+02
ITEM: ATOMS id type x y z v_stressx v_stressy v_stressz 
25292 7 5.89857 3.03966 7.5916 -2.50469 -8.48143 -6.14525 
25293 7 5.98077 1.53035 7.7064 -1.92085 -5.91069 -1.9009 
25252 6 5.35811 2.25094 7.51796 -6.29766 -3.2466 0.167387 
25287 5 0.61597 0.755495 10.7564 7.80335 -1.74388 2.3525 
25283 5 2.94291 4.2301 9.842 10.7301 6.33152 -13.0407 
25281 4 1.3887 2.44216 9.07367 -13.0065 1.83388 -15.6851 
25280 4 1.07853 5.00258 8.46007 -12.9515 -8.69348 -6.93788 
25277 2 1.45655 3.94107 9.49571 52.3151 35.5605 79.253 
25215 5 2.99957 0.588718 9.72621 -14.5611 -10.0924 -11.4757 
25209 2 1.59287 0.935181 9.44522 10.2178 -58.6514 71.7245 
25188 1 4.8243 2.58953 9.97468 4.95553 1.07774 13.3846 
25214 3 0.796635 0.0137284 8.44439 -2.09069 -4.8302 2.83943 
25282 5 0.520916 4.37471 10.6565 -15.2992 -14.4134 -17.5084 
25458 9 1.40812 -0.435335 7.83607 0.0244517 2.15001 1.7691 
25206 1 4.52732 -1.17961 10.115 34.6325 37.9737 19.7193 
22660 5 6.52822 0.875659 10.2203 -1.39667 -5.61137 -14.9737 
22735 5 6.623 4.87348 10.5536 2.17762 -9.4215 -13.93 
25505 7 1.83983 5.65447 5.50835 -0.0574966 -0.165795 -0.299587 
22662 3 7.17647 4.29529 8.22411 -12.1316 -23.3583 -18.5718 
22658 3 7.30314 0.346889 7.89736 -15.0307 -15.1997 -11.3991 
22905 9 7.65252 -0.485879 7.46068 0.0240639 -0.413732 -4.47078 
22906 9 7.50322 4.57024 7.35908 -2.73247 4.36571 9.73675 
20115 7 11.1372 2.292 6.49758 0.447837 -0.00621421 -1.14505 
22656 2 7.7059 0.365729 9.40584 22.966 73.8844 59.8215 
20116 7 12.1136 2.88755 7.40659 19.6991 6.69775 2.64676 
20078 6 11.1398 2.86581 7.23657 -15.9934 -11.6463 1.66951 
20106 3 13.741 4.72985 7.46261 -15.7864 -11.1591 42.121 
22657 2 7.60419 5.1024 9.41016 54.2826 -14.4297 21.4108 
20036 3 13.619 0.47741 7.57109 -16.6112 -19.5693 16.732 
20107 4 13.6664 2.6833 8.8298 -18.1491 -14.1908 -33.8173 
20104 2 13.8784 4.18168 8.97251 31.7816 36.3651 94.8904 
20031 2 13.7132 1.1448 8.96008 63.1454 164.447 14.2894 
20108 5 12.6966 4.70757 9.81807 14.8268 11.8893 1.36478 
20112 5 12.4932 0.846951 9.91178 10.8768 -0.533279 5.25467 
22654 1 10.4859 2.78478 9.68506 11.4666 10.2444 10.9101 
22661 5 9.03983 1.11007 9.56315 -7.51962 -6.43682 -15.7584 
22663 5 9.10858 4.7108 9.73761 4.28386 -13.0235 -15.2939 
22563 1 10.886 -1.13469 10.1589 -0.292464 -0.343903 -14.3799 
22659 4 7.7627 -1.12896 9.68153 -9.66922 -34.8434 -34.265 
22629 6 11.3751 -1.065 7.76545 -16.8085 4.99016 2.29274 
22669 7 11.9249 -0.207968 7.44815 1.30949 5.21937 -1.25322 
20352 9 13.8605 1.22514 6.87465 0.717451 12.5373 14.6388 
20189 7 14.2777 3.18994 6.51456 0.286864 13.547 8.35321 
20353 9 14.543 5.23857 7.22704 7.74361 13.2289 16.8226 
20148 6 14.5671 2.45013 5.87332 0.14419 0.0564539 0.0991448 
22740 7 11.2703 5.5881 6.8279 3.29433 1.48658 -1.17698 
22738 7 8.76742 5.41578 5.90114 -0.672981 0.700857 -1.3415 
22701 6 7.85394 5.37142 5.69312 0.432645 -0.316091 7.81806 
22739 7 7.886 4.86164 4.87022 -0.0108896 0.0202995 0.00864477 
22670 7 11.9327 -1.89861 7.72342 1.05175 1.6797 -5.15703 
20188 7 15.4435 2.20345 6.22553 0.814789 -0.134316 0.0711315 
20037 5 15.0057 0.565552 9.66218 -1.10603 -7.08233 -12.9332 
20118 7 17.8719 2.63796 7.70159 5.67395 -0.313185 -2.86175 
20117 7 17.6995 1.17882 7.44002 3.0429 2.55597 -4.69989 
17799 9 19.455 -0.241526 7.33338 0.352583 6.59073 17.8862 
20077 6 17.1284 2.01775 7.60787 -23.2711 2.32751 26.6745 
17484 3 19.536 4.02271 8.03155 -4.23701 -2.61034 -2.4959 
20109 5 15.1822 4.68195 9.53593 -5.94683 -7.27865 -17.5043 
17480 3 19.3808 0.510653 7.95906 -16.6139 -31.9621 11.1049 
17478 2 19.7385 0.13463 9.405 32.8213 35.2315 47.6755 
17479 2 19.7269 4.90401 9.32133 46.9022 113.621 61.6801 
17485 5 21.0972 4.45706 9.83859 4.84184 -16.0416 -16.4737 
17483 5 21.125 0.57616 9.92672 4.97216 -10.0639 -13.1996 
17482 5 18.7273 0.612358 10.4453 1.28823 -3.86338 -6.2221 
17560 5 18.5746 4.39351 10.2378 -1.05398 1.70471 -11.6512 
20011 1 16.7883 2.43064 10.1919 50.6489 45.9107 52.1173 
20028 1 16.5417 -1.33752 10.1131 23.8201 17.335 9.95671 
17481 4 19.613 -1.37684 9.30614 -12.4465 -19.7476 -37.674 
17800 9 20.2785 3.41394 7.96437 0.322648 -2.87895 -5.41681 
20002 6 16.2002 -1.21507 7.53432 -10.4286 -7.49465 13.5831 
20044 7 15.5857 -0.449442 7.68688 4.33458 8.56636 -2.94643 
20043 7 16.3516 -1.12082 6.60323 0.28399 0.201264 -0.839626 
17377 6 19.8786 -1.6773 6.3322 0.246713 -0.139645 -0.0165737 
17415 7 20.5742 -1.92657 6.98281 2.87105 2.48952 2.12471 
14864 7 23.6314 3.83266 7.75133 5.58515 -4.68466 -1.47075 
14825 6 23.2988 2.969 7.82153 -9.2977 -3.84943 1.37792 
14863 7 24.1611 2.53617 7.90018 3.88318 -1.30612 -0.591133 
17476 1 22.5994 2.5974 10.2549 -65.2103 -41.0433 49.1664 
14928 3 25.5679 4.59148 8.20809 -31.305 -50.056 -46.4129 
15246 9 24.7065 0.00657495 8.04332 7.98854 10.7948 19.895 
14856 3 25.5405 0.383335 8.16649 -12.6361 -14.8543 10.8952 
14929 4 25.6618 2.47021 9.27814 -17.6596 -34.9522 -33.8732 
14851 2 25.7726 0.935136 9.6021 19.3961 -189.624 75.2523 
14926 2 25.8313 3.99121 9.61155 27.7588 145.62 88.0964 
14857 5 27.172 0.513951 10.0212 -9.62192 -11.8629 -20.6773 
14931 5 27.2703 4.30837 10.1061 -28.1834 -11.412 -17.5556 
14832 1 28.9014 2.41808 10.4207 15.3565 12.4481 44.1204 
14930 5 24.8007 4.37565 10.6576 12.5505 -4.43901 -13.0955 
14934 5 24.7275 0.511689 10.6576 4.67985 -4.04887 -0.473705 
17384 1 22.8636 -1.16741 10.5973 -1.42568 4.57683 -11.0348 
14848 1 28.7231 -1.43222 10.2624 15.2754 18.818 9.78902 
14898 6 29.1786 2.45721 7.88738 -13.7135 -15.3342 6.34389 
15247 9 26.3681 4.66526 7.72718 -1.61315 -1.09211 -15.3095 
14826 6 28.1456 -1.3901 7.71182 1.21104 -3.60977 26.9256 
14861 7 27.5228 -0.59177 7.7367 5.02204 5.88494 -2.29061 
14862 7 28.7608 -1.17174 6.9734 0.156127 0.0388292 -0.0678511 
17565 7 23.8543 5.62398 7.62904 12.5145 3.74645 -1.61542 
17491 7 23.3409 -0.830267 7.25909 0.0992326 0.0717715 -0.456375 
12347 6 29.4782 5.3719 8.00631 -15.2998 -7.23334 4.22301 
14939 7 29.2544 3.33895 7.63004 0.450268 -0.922935 -1.2165 
17492 7 24.1978 -1.77871 8.08715 8.23456 2.45819 -6.36074 
17450 6 23.2929 -1.42611 8.02021 -21.6203 -6.91639 19.4454 
25291 7 5.22591 6.53661 7.32751 1.19266 1.65686 -3.11178 
25290 7 3.82687 6.55555 6.86919 -0.682503 1.64147 -4.35379 
25253 6 4.33607 6.71227 7.63615 -9.67171 -11.6187 1.80735 
25517 7 1.84279 7.29014 5.50902 -0.0259226 -0.0604406 -0.553017 
25313 6 1.21101 6.45671 5.78137 6.05135 -5.06017 30.27 
25362 7 1.19888 10.608 6.31952 -0.0143828 -0.00694016 -0.0169811 
25275 1 4.36027 6.50413 10.1833 3.56352 12.8783 11.1841 
25278 8 0.639374 6.49188 7.63496 53.0401 31.5698 10.189 
22958 9 3.89074 10.3239 7.2783 -3.45325 1.5133 0.348107 
22732 3 4.70032 10.3548 7.96195 2.2816 -12.6592 13.4705 
25359 5 0.701437 8.49354 11.0939 -10.0028 -10.4973 -16.5749 
25356 5 3.08021 12.146 10.2169 9.92551 0.0359394 -12.5223 
25355 5 0.535314 12.2845 10.6518 -2.74119 -5.38839 -7.41345 
25354 4 1.48185 10.2856 9.54639 -13.7429 14.1387 -26.5046 
25353 3 1.39194 12.6945 8.41831 -12.7952 -8.49237 3.34225 
25351 2 1.63225 11.8296 9.72046 40.4289 48.3044 64.9911 
25286 5 2.93236 8.28049 10.0288 -5.64326 -16.0827 -18.72 
25285 4 0.892127 7.85648 8.74192 -20.8604 -18.7423 -5.09222 
25279 2 1.49492 8.71367 9.83417 17.1054 99.3756 76.6627 
25259 1 4.86194 10.2149 10.3927 7.98596 9.54105 54.1061 
25327 6 1.60703 9.7444 6.34125 2.31477 1.32429 -0.89709 
25363 7 1.38635 9.50649 7.2315 0.535828 2.75743 1.6595 
22807 5 6.5607 12.2849 10.8694 -15.8038 -14.4796 -17.3673 
22730 5 6.65234 8.34528 10.5398 -4.63474 -14.7748 -12.9016 
22726 8 6.48614 10.4372 7.49213 -1.55295 17.9939 -25.6873 
22761 6 7.05704 10.8316 5.66761 1.75998 2.48906 6.79557 
22733 4 6.9844 11.7221 8.61372 -10.9463 -12.7321 -2.65097 
22728 4 7.23016 9.05362 8.29312 -12.8917 -20.2827 -5.662 
22953 7 7.91026 10.1976 5.3838 -0.0662544 0.100769 -0.651813 
22965 7 7.33207 11.8331 5.45166 -0.0486998 0.142133 -0.276569 
22741 7 11.5 7.01103 7.05421 2.61536 -0.0325058 -1.55399 
22700 6 10.8104 6.36788 7.23855 -16.1816 -2.15156 18.3925 
22636 1 10.9188 6.69179 9.82281 4.81579 9.63685 12.1133 
22729 4 7.48133 6.61374 9.11192 -11.26 -8.75605 -27.8648 
22668 7 10.5831 8.59932 7.42923 1.9305 4.3558 -3.12928 
22725 2 7.70374 8.13304 9.39568 27.3673 31.7339 97.8123 
22727 2 7.53968 12.6129 9.75953 17.7153 132.965 78.7566 
22630 6 10.7174 9.56513 7.55044 -8.26516 0.683356 5.12501 
22667 7 11.6785 9.56 7.58776 1.28517 0.739069 -1.27696 
20110 3 13.3722 8.00482 7.87861 -11.0602 -1.10157 -3.96274 
20176 4 13.3404 12.979 8.33811 -6.62843 -6.97928 -4.20875 
20177 4 13.5478 10.5013 8.95979 -6.33331 -0.384306 -16.6554 
20173 2 13.7057 11.9908 9.40771 34.0555 -4.62987 78.0241 
20105 2 13.7244 8.93675 9.12343 -1.82913 7.19648 87.5977 
20178 5 12.5598 12.2564 10.4158 -7.74294 -12.3587 -21.5432 
20183 5 12.8988 8.51128 10.3587 -3.60216 -11.3792 -8.20266 
22734 5 8.97942 12.4092 10.1072 -12.4854 -12.5164 -16.9349 
22723 1 10.5486 10.4168 9.97488 -2.89417 4.22562 9.39039 
22731 5 9.11607 8.33188 9.85191 -15.7168 -24.3267 -22.0862 
20354 9 13.8366 7.1662 8.02076 -1.1295 -12.3243 -25.3177 
17489 7 15.3685 7.53149 7.27379 -6.21055 -2.28055 -3.78439 
17490 7 16.4114 7.08597 6.51817 -0.224924 0.0335803 -0.311614 
17451 6 15.9423 6.78743 7.29642 -18.7344 -17.1977 17.4798 
17555 4 19.5148 6.40419 9.24816 -10.8881 2.39301 -18.7632 
20102 1 16.4765 6.46221 9.86905 10.969 0.321701 18.4663 
20179 5 15.0791 12.3713 9.86379 2.67487 3.70386 -11.5072 
20111 5 15.0953 8.51182 9.52882 -26.064 -14.009 -15.0779 
17802 9 19.4832 11.878 7.51898 -0.106224 -0.0990138 0.164616 
17554 3 19.6317 8.68088 7.9737 -1.88837 -5.322 6.14794 
17801 9 19.3812 9.57046 8.10065 0.648749 12.1763 6.36483 
17558 3 19.3121 11.5602 8.35726 -4.23392 -2.17619 -0.72401 
17552 2 19.7279 7.97853 9.40881 25.3336 58.0006 61.4322 
17553 2 19.7446 12.5897 9.5152 42.6323 43.4101 67.3924 
17559 5 21.2085 12.1329 9.83297 6.8242 -0.673418 -10.7224 
17557 5 21.1128 8.33065 9.93016 1.04212 -11.4768 -15.9064 
17556 5 18.49 8.44005 10.194 12.304 -4.17634 -7.63634 
17631 5 18.754 12.2185 10.6826 1.8967 -5.63798 -3.03057 
20084 1 16.8199 10.2664 10.3615 -11.4078 -4.70981 -0.740018 
17566 7 22.7737 6.49197 7.09029 0.094317 0.0187005 0.0507732 
17525 6 23.2369 6.30614 7.97014 -29.9764 -6.05107 17.1962 
15249 9 26.4199 12.3989 7.50271 0.846863 0.685779 0.251452 
14924 1 28.8784 6.30371 10.2599 25.2768 20.8177 4.45994 
17459 1 22.8153 6.36449 10.4136 -83.0704 -68.0435 40.4298 
17550 1 22.6813 10.1773 10.109 18.9562 17.6773 8.6963 
15248 9 25.0074 7.30471 8.25379 6.73355 8.9006 8.69421 
15002 3 25.5553 12.1132 7.86039 -4.86526 -8.78092 8.97152 
14932 3 25.8534 7.69566 8.37038 -4.64727 -4.23821 1.397 
15003 4 25.6929 10.0578 9.40228 -9.11769 -5.89244 -22.9416 
15000 2 25.8234 11.5586 9.33827 29.3089 102.472 69.9953 
14927 2 25.9265 8.52626 9.67582 39.8016 67.2671 72.1536 
15005 5 27.2586 12.0307 9.65026 -1.55923 -12.6504 -16.4316 
14933 5 27.3368 8.19806 10.2714 9.67587 -14.0923 -17.37 
15004 5 24.794 12.1885 10.2281 1.24246 3.29209 -11.4879 
14907 1 29.0423 10.186 10.3202 23.6389 18.3019 22.1307 
15008 5 24.7476 8.17989 10.6591 15.5907 -0.151253 -2.28112 
14899 6 29.4402 9.94521 7.67407 -3.24955 0.00456683 5.24869 
17637 7 24.0129 13.1402 7.48134 1.61262 0.647887 -0.191329 
25427 5 0.471403 16.2254 10.9577 5.8148 -3.71431 -5.02731 
25424 5 3.05777 19.7432 10.2643 -15.1125 -6.33564 -9.60988 
25423 5 0.62854 19.9386 10.7649 4.04328 -4.11585 -10.1421 
25422 4 1.53223 17.8586 9.5283 -9.77801 7.10871 -14.5356 
25421 3 1.35286 20.1653 8.46116 -3.25332 -2.59191 -0.181805 
25419 2 1.68921 19.4163 9.80763 -41.0215 139.843 66.1514 
25358 5 3.0433 15.9649 10.3935 6.11319 -1.2391 -11.4119 
25352 2 1.62447 16.359 9.9389 57.3349 2.65804 36.2766 
25333 1 4.76049 17.9652 10.8964 -4.58238 13.2641 -2.4719 
25357 3 1.27516 15.4524 8.77037 -12.2189 -17.3089 19.0123 
25460 9 1.6173 15.8283 7.87293 0.0964295 0.363576 4.23509 
25349 1 4.58657 14.1062 10.6957 7.1491 16.2913 -4.3002 
22803 5 6.49129 16.0975 10.8756 1.27015 -0.534177 0.800459 
22875 5 6.46084 20.071 11.1158 20.116 8.21916 13.6215 
25459 9 1.48999 13.6574 8.56205 -1.59073 4.7248 -4.03552 
22801 3 7.03055 16.5942 8.55987 -2.28129 -6.96963 4.23428 
2179 7 -0.387305 20.8468 8.22815 14.4495 2.20042 -6.30621 
15171 7 22.371 27.5204 17.7128 2.2784 0.0449571 1.99731 
22805 3 7.32975 19.3599 8.91011 -8.6517 -8.90982 25.3472 
22908 9 7.54595 19.9046 8.12021 0.0112765 0.263116 6.55267 
22774 6 7.84223 14.1301 6.46407 2.05295 1.25394 1.73806 
22907 9 7.21638 17.5067 8.66763 -0.0408086 20.2873 1.79517 
22800 2 7.69826 20.1918 10.1825 71.9435 58.2043 35.9649 
22810 7 9.52718 17.6319 7.67339 -2.0317 0.949816 -1.97765 
22775 6 10.3724 17.5576 8.1234 -18.121 -9.0746 6.24927 
22811 7 11.0269 17.744 7.42304 6.09993 1.04936 -1.17363 
20249 3 13.6146 20.1923 8.5115 -17.6581 -16.2299 19.5241 
22799 2 7.50164 15.6895 9.76752 2.71717 21.8618 71.2188 
20181 4 13.1648 15.598 8.7498 -9.68957 -32.0172 -11.789 
20250 4 13.59 17.8559 9.69511 -14.0592 6.55015 -27.0382 
20247 2 13.6446 19.4223 9.89672 3.60953 29.4479 66.9963 
20175 2 13.7411 16.3389 9.95052 45.5623 116.853 84.2359 
20255 5 12.7826 16.0392 11.1348 -3.00043 -11.8141 -15.7592 
20251 5 12.5994 19.887 10.8751 -0.763501 0.187288 10.6761 
22797 1 10.5866 17.8329 10.6706 3.17226 -1.27167 17.3253 
22804 5 8.85928 16.0465 10.2629 -4.63421 -11.2894 -14.0571 
22806 5 9.15709 19.6726 10.6518 26.3576 -12.455 -11.5374 
20209 6 12.874 15.0323 5.7533 0.475957 -0.363019 1.48274 
20174 8 12.7095 14.4625 7.54514 27.3965 10.9675 -53.4694 
22802 4 7.35344 14.1712 9.46207 -21.2274 9.42043 -28.9297 
22707 1 10.7485 14.2517 10.2767 12.1315 10.5426 -3.85159 
20180 3 10.8086 14.0423 7.95232 18.1173 -8.90319 4.6717 
20260 7 13.0324 18.8856 6.99744 0.132304 1.34096 1.2785 
20261 7 12.9162 17.3666 7.33817 -0.538453 10.634 5.65751 
20401 7 13.4229 15.9899 5.62814 -0.161136 0.311166 -1.27737 
20406 9 10.0189 14.4108 7.4707 -1.24256 2.86278 -2.26499 
20413 7 11.9327 15.1884 5.26927 -0.068408 -0.0248046 -0.439143 
20222 6 12.7014 18.0477 6.67459 -0.749623 0.703474 -1.02247 
22813 7 7.7456 15.0607 6.62462 -0.0718397 -0.0484703 0.0724141 
22812 7 7.44152 13.8113 7.30537 0.728016 1.46088 6.61148 
17861 7 18.0327 18.1656 5.18632 -0.0414936 -0.0258042 -0.195494 
17849 7 19.1146 19.332 5.5722 -0.0524053 0.152223 -0.56358 
17657 6 18.7692 18.3451 5.88217 -4.86537 -2.66898 15.092 
20252 5 14.9691 19.7344 10.5394 -8.61665 -13.5234 -17.6751 
20182 5 15.2166 16.0409 10.213 -4.12712 -20.6753 -13.3546 
17622 8 18.5634 18.0799 7.75046 32.4327 27.9847 -13.4938 
17854 9 15.9449 18.6012 8.0719 -0.295504 2.02874 -3.22443 
17628 3 16.7563 18.0742 8.25458 4.01964 -9.99803 9.46929 
17624 4 19.3217 16.6826 8.46567 -7.92051 -11.597 -3.88368 
17629 4 18.9827 19.4332 8.85904 -13.832 -12.3643 1.23263 
17621 2 19.6951 15.6526 9.54627 46.8335 95.4321 82.4138 
17623 2 19.5501 20.2671 10.0023 53.7805 26.5755 74.6036 
17630 5 21.0316 19.7719 10.2793 12.3743 -2.68864 -15.1821 
17627 5 21.1919 15.89 9.96206 1.09264 -17.6237 -16.5715 
20155 1 16.8424 17.9752 10.6946 2.18829 10.6722 -18.1188 
17626 5 18.7672 15.8963 10.7355 -8.62415 -8.59269 -11.5413 
20171 1 16.7158 14.1373 10.3208 4.86206 6.16454 -14.7469 
17625 4 19.606 14.0957 9.12525 -6.14306 7.90184 -11.647 
17564 7 21.4906 17.2833 7.58657 -0.57588 1.59015 -1.13248 
17703 5 18.6795 20.0258 11.2014 -15.1685 -12.6771 -21.1376 
17709 7 19.905 20.6273 7.34679 2.93172 4.93464 4.34746 
20259 7 15.568 20.8847 8.4035 12.2191 3.58551 -2.28124 
17526 6 22.4132 17.452 7.70597 -7.62052 -6.777 17.8226 
17563 7 22.8092 16.6576 7.3521 0.257956 0.369532 -1.87758 
17619 1 22.5682 17.9268 10.3236 11.321 12.7676 -56.8624 
15250 9 25.4259 16.554 7.3496 3.26423 4.23221 70.489 
15006 3 25.6058 15.7572 7.92658 -17.3675 -12.4285 55.4583 
15072 4 25.3173 20.4252 8.40544 -13.1446 -7.87828 -2.84164 
15073 4 25.9599 17.9542 9.15621 -16.0014 5.94736 -35.0707 
15069 2 25.8295 19.4844 9.52152 47.5068 196.322 67.7525 
15075 5 27.2671 19.8707 9.91392 5.14517 -4.21561 -14.3531 
15001 2 25.8934 16.4473 9.39988 31.947 22.8036 32.6385 
15007 5 27.2951 15.9854 9.7832 -0.588825 -10.702 -15.5732 
14980 1 29.1857 17.8209 10.1444 -12.6225 -20.7199 14.1922 
15074 5 24.8028 19.6389 10.6176 -6.13931 -5.38102 -19.4971 
15079 5 24.8396 16.1163 10.4638 8.48167 -3.51151 0.484043 
12533 7 25.4571 18.3754 7.23091 -0.337461 4.53291 6.16343 
17532 1 22.9834 14.1035 10.1761 10.0598 12.492 8.62294 
14998 1 28.6373 13.9834 10.0874 20.1965 25.1853 12.9307 
12492 6 25.1645 17.9196 6.43544 -1.27654 -1.72545 -0.977466 
12532 7 24.2391 17.8074 6.45162 -0.0709091 0.0133803 -0.21415 
17636 7 24.2982 14.6547 7.77674 3.18262 -4.67576 -4.60177 
17597 6 27.3956 19.7327 6.47718 -16.4241 -1.10293 0.618914 
17635 7 27.0344 19.9354 7.31032 6.40998 1.2322 -2.15821 
17596 6 23.5563 13.9987 7.66239 -11.4123 -1.58105 4.65332 
14974 6 28.7308 14.0837 7.53935 -5.78432 -10.8871 7.57344 
17634 7 26.9707 18.9124 6.11254 0.289184 0.569971 -0.143953 
15084 7 28.6931 18.2675 6.90767 0.600847 2.78497 -1.45341 
15012 7 28.1952 14.867 7.30744 1.77624 1.80464 -1.75154 
15044 6 29.2899 17.8272 7.55162 -18.4488 -15.5126 14.0085 
15011 7 29.5706 14.1102 6.99075 5.06256 0.875507 -0.248799 
25461 9 1.63963 21.1191 8.56579 -0.415599 9.01878 -5.95348 
25417 1 4.459 21.7465 10.9217 -16.9074 -19.992 -14.8951 
24923 5 0.754769 27.5218 10.9484 5.88534 1.81834 -1.63061 
25425 3 1.35108 22.98 8.77836 -10.7219 -8.24581 18.063 
24927 5 0.559259 23.61 11.1153 15.7704 -1.78919 8.01697 
25426 5 3.10363 23.8017 10.4009 3.60856 -9.49077 -9.39962 
25420 2 1.64879 23.9265 10.0018 35.6359 98.6125 60.1056 
25401 1 4.97038 25.5329 10.7242 11.7515 5.22071 0.389275 
24924 5 3.18735 27.1766 10.4054 -6.24288 -6.08779 -13.7083 
24922 4 1.38256 25.4386 9.75254 -16.5309 10.2976 -17.3929 
24919 2 1.7823 26.9563 9.95451 1.55897 144.623 61.2125 
24921 3 1.55556 27.7248 8.56562 -3.28317 -0.909864 8.24716 
25462 9 1.60156 23.3783 7.96981 -0.054492 0.117213 1.8132 
22871 5 6.64021 23.6959 10.9095 5.03792 -4.81237 -4.77391 
25451 9 2.36751 27.8615 8.13061 0.0521557 0.480931 1.55191 
22375 5 6.78156 27.3777 11.2762 2.32426 -3.82368 -4.83401 
20355 9 13.7553 21.1037 8.67011 -2.54829 21.3782 -0.784701 
22873 3 7.36095 26.8242 8.94079 -1.82622 -2.92067 22.7296 
22910 9 7.83453 27.1872 8.16884 0.0193543 0.304067 5.19817 
22881 7 10.5673 22.2037 7.78641 0.176052 0.150759 -0.587192 
22880 7 12.0072 21.7432 8.22322 12.097 4.45457 -4.43736 
22869 3 7.56442 24.0265 8.5961 -0.865251 -1.28959 0.780867 
22842 6 11.0399 21.8185 8.50693 -11.6888 -8.68538 2.15436 
22909 9 7.42422 24.9915 8.72358 -0.286614 9.48717 -0.716616 
22870 4 7.80675 21.6814 9.76784 -9.95375 13.0457 -14.108 
22781 1 10.8959 21.6885 11.0129 -25.7683 -19.4259 26.7757 
22868 2 7.76545 27.7412 10.1816 38.2917 97.5448 38.432 
22867 2 7.78902 23.2324 9.92461 54.2251 190.079 69.9682 
22381 7 12.0152 26.341 8.4485 11.139 9.21494 -1.33684 
20253 3 13.4682 23.4016 8.82795 -29.6979 -27.7362 6.69166 
22380 7 10.8121 26.2531 7.54966 0.0745597 0.106283 0.0964784 
22342 6 11.2091 25.8188 8.3988 -19.4781 -2.73925 29.9244 
20317 3 13.3219 27.8427 9.08682 -10.5209 -13.344 -9.14678 
20248 2 13.7696 24.0294 10.2263 8.39618 4.56497 109.437 
20318 4 13.624 25.5447 10.0164 -29.2597 -19.3336 -43.6837 
20315 2 13.7788 27.0543 10.3348 51.4309 -13.8647 84.1357 
22865 1 10.6865 25.3992 10.9226 12.7834 11.3466 29.8898 
22872 5 9.17462 23.6871 10.462 5.37757 -15.6641 -13.7029 
22874 5 9.24947 27.6706 10.5948 6.62314 -9.59876 -9.90221 
20356 9 12.5954 23.6209 8.49206 10.3451 3.86232 -9.85426 
25431 7 14.1509 26.52 7.83751 1.0955 4.74645 6.67654 
20323 5 12.8525 23.6161 11.429 2.26409 -8.00674 0.737293 
25430 7 14.093 24.9955 7.86813 1.7392 4.71284 10.2952 
25395 6 14.4016 25.7329 7.27378 -0.141312 0.0909701 -0.152089 
20258 7 15.2294 22.3163 8.12146 1.36571 0.138742 -1.38562 
20223 6 16.0015 21.7513 8.2238 -7.33277 -1.29175 8.99601 
20245 1 16.5342 21.695 10.8038 16.4331 20.5221 20.6243 
17698 4 19.4354 21.7483 9.56107 -12.0112 -3.90202 -28.4839 
20320 5 15.2214 27.4242 10.856 4.4827 -11.1121 -15.6257 
20254 5 15.1801 23.5949 10.561 -15.8955 -11.6528 -20.7481 
20329 7 17.2434 26.6466 8.28058 3.99708 3.22324 -3.68242 
20328 7 16.0419 25.8023 7.61998 1.70439 -0.014271 -0.102842 
17803 9 18.6355 24.4714 8.19816 9.14021 9.22944 -0.647427 
20290 6 16.6573 25.8385 8.42977 -27.0953 -4.83597 8.55659 
17697 3 19.4666 23.9299 8.24968 -7.44196 -15.554 7.47587 
17701 3 18.7572 27.5768 9.07536 -11.497 -29.6332 -3.14132 
17695 2 19.6311 23.298 9.64847 1.84249 5.79931 77.9448 
17696 2 19.6976 27.9701 10.2409 33.4052 100.551 89.9175 
17700 5 20.9899 23.6351 10.1729 -17.3436 -7.58738 -18.8055 
17702 5 21.0953 27.3466 10.1236 7.95073 -13.5352 -20.1581 
17699 5 18.7076 23.7838 10.7613 -3.14506 -4.27314 -0.861742 
20229 1 17.0048 25.6018 10.9426 18.8098 15.1064 -16.2096 
17708 7 20.0702 22.1005 7.0657 -0.230765 1.39756 0.814547 
17670 6 20.1319 21.2549 6.64674 -0.757164 0.859971 -1.32658 
17707 7 20.7868 25.2363 7.6314 4.68913 4.9288 -0.0143194 
17706 7 21.1787 26.5559 8.43819 0.17039 6.5345 6.96971 
17671 6 21.5933 25.7538 7.94146 -0.507637 -4.89947 4.87075 
17804 9 18.1596 28.2261 8.79174 4.32259 -0.351341 -3.0971 
15302 9 22.12 22.0167 7.2663 -10.7465 2.27546 -0.62679 
15082 7 28.9341 21.4367 6.98265 -0.110884 1.91208 -3.00692 
15309 7 26.1711 21.1856 5.56242 -0.0512181 0.353899 -0.579 
15297 7 25.7773 22.9358 5.36905 0.024816 0.422078 0.0407113 
15076 3 22.8653 21.7306 7.945 5.0631 -10.2697 6.72278 
15105 6 25.4296 21.9972 5.7434 2.50988 2.79511 8.68012 
15067 1 28.5009 21.8246 10.3102 6.78846 13.6282 25.6277 
17603 1 22.8719 21.8054 10.3091 41.8816 31.5677 60.9924 
15070 8 24.6898 21.8654 7.53391 8.7711 21.921 -5.48191 
15157 7 24.761 24.7113 6.5409 0.0955396 1.45442 -2.20741 
17693 1 22.4585 25.6458 10.3024 35.5136 46.7174 38.6074 
15118 6 24.3516 25.0692 5.80024 0.216034 -0.0179756 -0.0777744 
15156 7 23.4675 25.4068 6.08223 0.347891 0.0665306 -0.0164232 
12750 9 28.7793 27.0604 8.02173 -18.1438 -1.28895 -3.52325 
15145 3 25.8709 28.1424 8.32624 -25.1245 -9.98076 24.1763 
15077 4 25.2347 23.1977 8.50469 -14.9134 -21.8351 -11.6949 
15146 4 25.5466 25.6818 9.29943 -7.96561 17.7773 -15.8996 
15143 2 25.8227 27.2278 9.63665 34.1825 58.1488 42.0738 
15071 2 25.6377 24.1622 9.58877 43.4309 137.767 70.751 
15078 5 27.0823 23.775 9.8664 3.4263 -1.67582 -12.1412 
15148 5 27.2019 27.5255 10.2775 11.2958 -13.4321 -15.7443 
15051 1 28.9278 25.6837 10.4438 0.525022 12.8911 40.6607 
15147 5 24.7278 27.7419 10.5663 3.7337 -2.18554 -7.85584 
12524 3 29.1596 26.0649 8.01414 -11.2748 -1.36043 8.92413 
15045 6 29.2043 21.7754 7.82857 -18.526 -11.0563 5.24526 
15251 9 25.5134 27.6474 7.63837 -0.0748725 -0.296839 15.5609 
15151 5 24.6677 23.8201 10.7274 -4.96999 -8.21055 -15.8193 
25272 7 0.386536 4.37281 16.2851 1.43383 0.795146 9.04311 
25198 5 4.5419 2.55475 12.6561 -17.4742 -10.2669 -11.529 
25195 5 4.3158 -1.09258 12.7632 -0.891243 -3.42964 3.12504 
25511 9 -0.0516505 0.610667 16.1535 -9.31258 3.97281 2.62351 
22635 1 6.05896 0.692999 12.8525 -17.8015 -1.62246 -7.20156 
25268 5 2.06322 2.89899 12.9931 -1.26633 -12.6844 -22.0806 
25258 1 0.250924 4.4912 12.7638 5.35139 -0.947011 4.94771 
25207 1 0.476342 0.786529 13.0733 9.36038 31.0643 19.0142 
25191 2 3.47612 3.03985 13.5769 20.876 123.213 58.9343 
25263 4 3.57926 4.53329 13.9916 -28.7492 7.98379 -37.559 
25197 4 3.26023 2.0922 14.7531 -11.3371 -33.8745 -14.5504 
25192 4 3.04502 -0.482259 14.848 -6.77552 -8.34593 -3.7809 
25196 3 0.597262 0.839262 15.3561 26.7597 -15.4647 9.71596 
25190 8 2.483 0.91084 15.8217 36.466 27.5694 -2.91301 
25240 6 3.67219 0.768174 17.3791 6.19876 -0.136297 37.9988 
25519 7 3.51867 -0.154975 17.945 2.61865 8.33557 0.101412 
25507 7 3.40074 1.4905 18.1782 2.19059 2.39383 -7.6926 
22649 6 3.68526 4.20401 16.7409 -18.9021 -16.9477 -32.4597 
25308 6 0.117321 4.48931 15.3311 -20.6572 -7.16485 14.6983 
25270 6 1.29282 4.17782 18.0898 -60.2365 -26.3321 -22.2614 
25310 7 1.33632 4.84038 18.8673 -1.1575 23.1581 8.52826 
22655 1 6.37544 4.67075 12.8239 1.13346 11.8351 2.31545 
25194 5 1.89442 -1.62182 13.1754 -0.886393 -14.5813 -19.9325 
25189 2 3.31878 -1.5892 13.8009 43.7154 152.307 97.593 
25309 7 2.14484 4.34261 17.5927 16.9961 -1.24785 -0.588895 
22683 6 6.12334 1.13173 15.4036 -10.6669 -11.0946 -4.47338 
22684 7 3.56981 3.56956 15.9961 0.514076 -0.872717 8.66434 
22644 3 6.79828 4.39518 15.257 0.531778 -7.90779 10.6174 
22685 7 3.71515 4.99581 16.2392 0.797128 -13.8856 0.209675 
20061 7 6.54865 -0.421254 17.9948 4.33739 0.00444326 1.36831 
25472 9 1.60321 2.93497 18.9563 8.8978 13.8 31.7269 
22651 7 5.21963 1.42441 15.7514 20.2755 3.20799 0.230024 
22650 7 6.55648 0.631196 16.0957 0.0138184 1.08406 -4.86189 
25236 7 0.647462 0.968686 18.8117 9.31942 2.79207 -3.39678 
22759 7 4.69107 3.44517 18.2598 8.87444 3.72552 7.93131 
22959 9 6.35235 3.47216 15.5017 -37.3297 -0.570093 -1.88884 
25201 6 -0.040984 0.29812 18.7291 -11.3178 -8.3421 8.60725 
22760 7 5.9916 2.65652 18.9845 6.16212 3.87453 -5.49363 
22653 7 6.60198 -1.7513 16.2348 5.23197 15.1322 -0.0491368 
22717 6 5.24377 3.27797 19.1046 -7.89061 -6.48751 2.01566 
25227 3 2.60506 -1.83714 19.1933 -25.4551 -27.5971 -5.46544 
25237 7 0.391538 -0.476401 19.1851 2.50998 2.41518 0.172653 
2035 7 -0.367762 13.3179 8.02239 7.17316 0.288344 -2.86475 
20023 6 7.24776 -0.457775 17.3269 2.51936 -20.3077 -32.7934 
20062 7 7.92664 -1.12458 17.738 5.7372 10.679 -0.22908 
20366 9 14.2339 1.70629 18.9387 2.03677 19.7473 51.783 
22919 9 9.23674 1.88231 19.1051 18.9962 2.89469 -8.50693 
20022 6 13.6206 0.653571 17.4385 -17.5594 -11.4971 0.19218 
20101 7 9.55041 1.87066 16.0632 -3.86055 -7.71887 -1.55442 
22931 9 9.2691 -1.44002 15.6451 5.13913 4.24249 25.911 
22643 5 10.3472 2.57234 12.1955 -2.55842 -5.02968 -9.86701 
20083 1 12.0539 4.57824 12.2941 21.9745 12.7083 24.9973 
22642 5 7.78438 2.32799 12.6693 -1.98495 -7.36331 -21.0989 
22572 5 10.3915 -1.19034 12.4814 0.797542 -7.66701 -5.89661 
22647 5 8.01803 -1.15376 13.3887 12.5073 -14.2759 -17.6488 
20029 1 12.4935 0.818447 12.5759 2.10581 10.8928 -2.90771 
20095 5 13.8672 2.81253 13.0198 -11.753 -10.9642 -15.7497 
22637 2 9.23854 2.21284 13.1776 48.6217 81.311 72.01 
22565 2 9.47766 -0.798971 13.6553 33.2968 41.3225 53.0292 
22641 4 9.6135 0.790931 13.697 -26.336 7.65788 -30.5084 
22640 4 9.10375 3.21619 14.2882 -15.1344 -30.2086 -20.8374 
20060 6 12.0874 1.19498 15.1676 -3.47992 -5.08839 12.837 
20025 7 11.1449 0.909084 15.3864 13.3641 6.2264 1.7456 
22638 8 8.65184 4.46491 15.4349 -46.4657 -11.1943 -33.3889 
20024 7 12.5868 0.86882 15.982 2.84559 4.18882 12.074 
22688 6 9.62179 4.26242 17.0529 -5.40606 -5.89694 -6.69568 
20130 6 9.57526 1.3311 16.8254 -24.2634 -22.5189 -25.1721 
20016 5 13.8732 -1.10957 13.0216 2.84155 -13.9762 -18.6093 
20100 7 8.77246 0.798167 16.8874 6.09858 5.29439 -3.00273 
22967 7 9.4107 3.60093 17.8291 1.17489 6.31095 -13.166 
22571 3 9.9758 -1.41199 14.9703 -17.242 -23.1388 6.59823 
20064 7 13.4342 -0.211333 17.8226 0.975444 4.35343 -1.33755 
20096 6 11.2849 0.92462 19.0049 -20.7699 -9.55664 -4.90754 
20135 7 11.8592 1.65111 18.7096 0.174773 3.21207 -2.71793 
20134 7 10.6084 0.851243 18.2831 9.89552 0.379987 3.45778 
20063 7 14.3234 0.508148 16.8129 -1.80547 3.77596 -5.06618 
20379 9 14.2956 1.73325 15.1746 -4.96239 2.54776 -11.6738 
22955 7 10.242 5.01884 17.5248 5.44882 5.47903 0.610276 
20131 6 11.4383 4.66428 19.2587 -24.0835 -12.5546 -3.74932 
20051 3 14.1863 -1.78191 19.1702 -27.5317 -38.3037 -2.65648 
20378 9 15.4007 0.0444891 14.8487 0.992644 36.8395 26.2744 
20012 2 15.2359 -1.61828 13.5115 16.3462 -65.8153 73.4865 
17469 5 19.9364 -1.30131 13.4326 -6.88947 -14.003 -13.8979 
20017 5 16.2815 -1.21496 12.5395 8.50788 -1.04232 -7.71499 
20020 5 16.2894 2.4578 12.6312 -8.30989 -4.45556 -12.9123 
17477 1 18.4308 4.50707 12.7514 45.8624 39.1144 60.7061 
17458 1 18.218 0.637135 12.871 51.0662 38.0581 9.87397 
17464 5 19.9587 2.61017 13.0923 1.32284 -10.8087 -15.238 
20014 3 15.3481 -0.927596 14.9324 -13.2922 -3.62551 24.5542 
20013 2 15.2355 2.86552 13.6686 28.1196 -32.7781 53.6462 
20089 4 15.4847 4.41259 13.8828 -12.5643 -3.49142 -17.8249 
17460 2 21.2934 2.30374 13.8302 69.966 75.4296 95.209 
17386 2 21.2555 -0.760946 14.0881 52.2941 222.011 44.7111 
20019 3 15.2273 1.98922 14.9848 -13.4157 -1.046 7.86458 
17466 6 18.2766 0.0581509 15.3473 -16.874 -17.9817 -4.69419 
17494 7 17.7619 -0.752467 15.4587 5.00272 7.21472 -4.40726 
17493 7 19.1974 -0.281939 15.5253 7.61699 4.79223 2.76309 
17471 6 17.2955 2.46218 16.9759 -27.9549 -23.1964 -23.6899 
17510 7 16.5085 2.39664 16.4473 -2.3687 -0.933095 -12.1126 
17509 7 17.8462 1.78123 16.6588 -0.189197 1.20861 -0.870776 
17463 4 21.2166 0.803669 14.1626 -18.0417 7.29442 -31.8686 
17508 6 18.6542 4.22578 15.3459 -2.26054 -16.3959 11.5241 
14959 7 20.0996 -1.04315 18.1549 2.03883 8.88244 8.1084 
14960 7 20.0705 0.450553 17.9539 0.438919 9.44497 9.0247 
17391 3 21.474 -1.61981 15.3769 -20.2296 -24.4899 -5.32709 
17825 9 21.1963 -1.11578 16.1188 -2.41869 -1.09968 -14.4252 
17462 3 21.3801 3.03133 15.1812 -23.1647 -10.1003 8.55377 
14918 6 20.2826 -0.355747 17.4667 -4.42024 -8.39968 -13.315 
17826 9 21.2757 4.0307 15.0229 -2.87885 77.9152 12.6396 
17544 6 16.7025 4.34894 18.9816 -18.7242 -7.75656 16.4255 
17582 7 16.481 3.56872 18.3874 6.68847 9.52832 1.8697 
17457 7 16.1077 0.633514 18.9903 17.4408 13.3984 -2.98733 
17503 6 16.6134 -0.243465 19.0018 -8.53856 -1.99166 8.33593 
17583 7 15.9598 4.95228 18.844 6.84678 5.14853 -1.16526 
17499 3 20.235 2.18753 18.97 -16.696 -20.0282 -9.05221 
17813 9 19.4271 2.67785 18.7363 5.78144 0.666235 -23.1233 
17473 7 19.6181 4.39764 15.6771 12.4136 7.44789 -6.23255 
17472 7 18.146 4.02412 16.116 3.1415 7.35838 -3.31571 
17456 7 15.7987 -0.829616 18.7859 14.7499 -2.7449 -2.6941 
14905 7 21.6622 3.749 18.5388 14.7487 13.3425 -3.95456 
17504 3 20.2177 5.63622 19.1311 -9.50562 -21.5472 -1.30891 