ITEM: TIMESTEP
580000
ITEM: NUMBER OF ATOMS
25517
ITEM: BOX BOUNDS pp pp ff
-3.8959205201285124e-01 6.0088135642019459e+01
-1.9452389155355383e+00 5.9115524189537531e+01
-1.2206056431032383e+01 1.1390111600702880e+02
ITEM: ATOMS id type x y z v_stressx v_stressy v_stressz 
25292 7 5.89857 3.03966 7.5916 -2.45917 -8.48366 -6.3312 
25293 7 5.98077 1.53035 7.7064 -1.90365 -5.90869 -1.97089 
25252 6 5.35811 2.25094 7.51796 -6.35053 -3.24845 0.268656 
25287 5 0.61597 0.755495 10.7564 7.87771 -1.3929 4.22469 
25283 5 2.94291 4.2301 9.842 11.2112 6.53648 -13.0851 
25281 4 1.3887 2.44216 9.07367 -13.2446 2.02107 -16.6163 
25280 4 1.07853 5.00258 8.46007 -12.7391 -8.45394 -6.39772 
25277 2 1.45655 3.94107 9.49571 50.7875 38.962 78.9436 
25215 5 2.99957 0.588718 9.72621 -14.62 -10.0722 -11.8908 
25209 2 1.59287 0.935181 9.44522 7.29748 -56.6756 73.2545 
25188 1 4.8243 2.58953 9.97468 5.32268 1.37734 14.6861 
25214 3 0.796635 0.0137284 8.44439 -1.79968 -4.26582 1.80392 
25282 5 0.520916 4.37471 10.6565 -15.0981 -14.565 -18.4939 
25458 9 1.40812 -0.435335 7.83607 0.0226626 2.07109 1.71476 
25206 1 4.52732 -1.17961 10.115 35.0388 38.094 20.9971 
22660 5 6.52822 0.875659 10.2203 -1.24655 -5.63172 -16.036 
22735 5 6.623 4.87348 10.5536 2.3491 -9.22034 -15.8585 
25505 7 1.83983 5.65447 5.50835 -0.0552206 -0.160109 -0.295242 
22662 3 7.17647 4.29529 8.22411 -12.0468 -23.201 -17.8396 
22658 3 7.30314 0.346889 7.89736 -14.892 -15.2024 -11.1839 
22905 9 7.65252 -0.485879 7.46068 0.0187557 -0.414555 -4.48762 
22906 9 7.50322 4.57024 7.35908 -2.75451 4.315 9.46269 
20115 7 11.1372 2.292 6.49758 0.445677 -0.00566166 -1.16858 
22656 2 7.7059 0.365729 9.40584 21.8871 73.7175 61.6907 
20116 7 12.1136 2.88755 7.40659 19.6382 6.68212 2.53309 
20078 6 11.1398 2.86581 7.23657 -15.9012 -11.6108 1.96013 
20106 3 13.741 4.72985 7.46261 -15.7017 -10.979 42.6502 
22657 2 7.60419 5.1024 9.41016 54.1639 -15.6508 24.2151 
20036 3 13.619 0.47741 7.57109 -16.5172 -19.5172 16.522 
20107 4 13.6664 2.6833 8.8298 -18.0475 -14.2119 -34.3367 
20104 2 13.8784 4.18168 8.97251 31.7339 36.6016 95.8146 
20031 2 13.7132 1.1448 8.96008 62.5513 163.733 16.1274 
20108 5 12.6966 4.70757 9.81807 14.5613 11.7832 1.03292 
20112 5 12.4932 0.846951 9.91178 11.1333 -0.130353 6.48367 
22654 1 10.4859 2.78478 9.68506 10.9747 10.1522 11.9915 
22661 5 9.03983 1.11007 9.56315 -7.55802 -6.45655 -16.4201 
22663 5 9.10858 4.7108 9.73761 4.39248 -12.9441 -15.9484 
22563 1 10.886 -1.13469 10.1589 -0.516814 -0.698842 -15.4986 
22659 4 7.7627 -1.12896 9.68153 -9.29139 -34.7337 -34.3927 
22629 6 11.3751 -1.065 7.76545 -16.834 5.00381 2.40555 
22669 7 11.9249 -0.207968 7.44815 1.30675 5.21863 -1.27576 
20352 9 13.8605 1.22514 6.87465 0.708992 12.5292 14.615 
20189 7 14.2777 3.18994 6.51456 0.275656 13.5142 8.23722 
20353 9 14.543 5.23857 7.22704 7.7503 13.1952 16.7433 
20148 6 14.5671 2.45013 5.87332 0.144434 0.05703 0.10487 
22740 7 11.2703 5.5881 6.8279 3.28657 1.47489 -1.22548 
22738 7 8.76742 5.41578 5.90114 -0.676651 0.703565 -1.35141 
22701 6 7.85394 5.37142 5.69312 0.456287 -0.331854 7.83957 
22739 7 7.886 4.86164 4.87022 -0.0110742 0.0203046 0.00888306 
22670 7 11.9327 -1.89861 7.72342 1.06106 1.66268 -5.22023 
20188 7 15.4435 2.20345 6.22553 0.813946 -0.136606 0.0530545 
20037 5 15.0057 0.565552 9.66218 -1.02417 -6.85861 -13.6396 
20118 7 17.8719 2.63796 7.70159 5.64816 -0.332733 -2.90755 
20117 7 17.6995 1.17882 7.44002 3.00905 2.55722 -4.67767 
17799 9 19.455 -0.241526 7.33338 0.322608 6.59411 17.9311 
20077 6 17.1284 2.01775 7.60787 -23.1635 2.35743 26.6336 
17484 3 19.536 4.02271 8.03155 -4.19438 -2.56438 -2.31691 
20109 5 15.1822 4.68195 9.53593 -5.82377 -7.36782 -18.0122 
17480 3 19.3808 0.510653 7.95906 -16.465 -32.0026 10.6025 
17478 2 19.7385 0.13463 9.405 32.5035 34.4843 48.8696 
17479 2 19.7269 4.90401 9.32133 46.6136 113.145 61.4553 
17485 5 21.0972 4.45706 9.83859 4.82058 -16.06 -17.2042 
17483 5 21.125 0.57616 9.92672 5.10388 -9.94584 -13.5074 
17482 5 18.7273 0.612358 10.4453 0.991173 -3.65142 -6.86168 
17560 5 18.5746 4.39351 10.2378 -1.06417 1.63999 -11.5011 
20011 1 16.7883 2.43064 10.1919 50.1012 45.9595 43.7624 
20028 1 16.5417 -1.33752 10.1131 23.6943 17.2291 9.67892 
17481 4 19.613 -1.37684 9.30614 -12.2859 -19.6278 -37.7325 
17800 9 20.2785 3.41394 7.96437 0.304937 -2.89398 -5.48177 
20002 6 16.2002 -1.21507 7.53432 -10.3986 -7.50134 13.5697 
20044 7 15.5857 -0.449442 7.68688 4.33508 8.54278 -2.8332 
20043 7 16.3516 -1.12082 6.60323 0.282455 0.200353 -0.84768 
17377 6 19.8786 -1.6773 6.3322 0.247396 -0.138713 -0.0107983 
17415 7 20.5742 -1.92657 6.98281 2.86145 2.47781 2.08813 
14864 7 23.6314 3.83266 7.75133 5.59216 -4.69989 -1.48954 
14825 6 23.2988 2.969 7.82153 -9.28466 -3.79836 1.44614 
14863 7 24.1611 2.53617 7.90018 3.88007 -1.33538 -0.600152 
17476 1 22.5994 2.5974 10.2549 -65.7396 -40.9206 40.8979 
14928 3 25.5679 4.59148 8.20809 -31.4553 -50.0427 -46.7846 
15246 9 24.7065 0.00657495 8.04332 7.95879 10.8027 19.9968 
14856 3 25.5405 0.383335 8.16649 -12.5609 -14.8086 10.8122 
14929 4 25.6618 2.47021 9.27814 -17.7294 -35.1431 -33.6182 
14851 2 25.7726 0.935136 9.6021 19.6189 -190.25 75.2683 
14926 2 25.8313 3.99121 9.61155 28.9356 145.705 89.6653 
14857 5 27.172 0.513951 10.0212 -9.73348 -11.7798 -21.3502 
14931 5 27.2703 4.30837 10.1061 -28.2818 -11.3497 -17.8164 
14832 1 28.9014 2.41808 10.4207 15.1408 12.3508 58.0406 
14930 5 24.8007 4.37565 10.6576 12.7409 -4.34943 -12.7773 
14934 5 24.7275 0.511689 10.6576 4.42397 -3.7629 -1.60704 
17384 1 22.8636 -1.16741 10.5973 -3.47188 4.19719 -40.2096 
14848 1 28.7231 -1.43222 10.2624 14.2571 18.7895 -27.2469 
14898 6 29.1786 2.45721 7.88738 -13.7295 -15.3257 6.20232 
15247 9 26.3681 4.66526 7.72718 -1.61462 -1.09286 -15.317 
14826 6 28.1456 -1.3901 7.71182 1.31553 -3.60389 26.7998 
14861 7 27.5228 -0.59177 7.7367 4.99235 5.8748 -2.26758 
14862 7 28.7608 -1.17174 6.9734 0.155238 0.0392866 -0.0647152 
17565 7 23.8543 5.62398 7.62904 12.5446 3.73629 -1.575 
17491 7 23.3409 -0.830267 7.25909 0.0957921 0.0707576 -0.458523 
12347 6 29.4782 5.3719 8.00631 -15.2 -7.14386 4.21844 
14939 7 29.2544 3.33895 7.63004 0.448903 -0.926734 -1.22046 
17492 7 24.1978 -1.77871 8.08715 8.18272 2.4455 -6.32474 
17450 6 23.2929 -1.42611 8.02021 -21.5269 -6.94088 19.1634 
25291 7 5.22591 6.53661 7.32751 1.18481 1.65557 -3.26802 
25290 7 3.82687 6.55555 6.86919 -0.68719 1.66194 -4.47155 
25253 6 4.33607 6.71227 7.63615 -9.59461 -11.5828 2.41708 
25517 7 1.84279 7.29014 5.50902 -0.0256823 -0.056631 -0.551418 
25313 6 1.21101 6.45671 5.78137 6.01717 -5.34248 30.2444 
25362 7 1.19888 10.608 6.31952 -0.0158582 -0.00409444 -0.0237744 
25275 1 4.36027 6.50413 10.1833 4.22476 12.9349 7.92999 
25278 8 0.639374 6.49188 7.63496 52.9649 31.9315 8.71584 
22958 9 3.89074 10.3239 7.2783 -3.48222 1.509 0.227647 
22732 3 4.70032 10.3548 7.96195 2.48416 -12.6155 13.8603 
25359 5 0.701437 8.49354 11.0939 -9.88733 -10.3083 -17.3571 
25356 5 3.08021 12.146 10.2169 9.89402 0.270393 -13.1779 
25355 5 0.535314 12.2845 10.6518 -2.58235 -5.37104 -7.79156 
25354 4 1.48185 10.2856 9.54639 -13.6635 13.5796 -27.4236 
25353 3 1.39194 12.6945 8.41831 -16.9357 -9.67056 2.59141 
25351 2 1.63225 11.8296 9.72046 38.9356 47.9339 67.0673 
25286 5 2.93236 8.28049 10.0288 -5.56906 -16.1218 -19.5585 
25285 4 0.892127 7.85648 8.74192 -20.7772 -18.4739 -4.30682 
25279 2 1.49492 8.71367 9.83417 16.4473 98.009 79.8259 
25259 1 4.86194 10.2149 10.3927 7.39746 9.38448 49.1181 
25327 6 1.60703 9.7444 6.34125 2.32642 1.26484 -0.805209 
25363 7 1.38635 9.50649 7.2315 0.523685 2.77601 1.42479 
22807 5 6.5607 12.2849 10.8694 -15.7714 -14.3045 -18.4771 
22730 5 6.65234 8.34528 10.5398 -4.76709 -14.6832 -14.9015 
22726 8 6.48614 10.4372 7.49213 -1.74685 17.86 -26.6851 
22761 6 7.05704 10.8316 5.66761 1.77058 2.50782 6.83194 
22733 4 6.9844 11.7221 8.61372 -10.9463 -12.7168 -2.59693 
22728 4 7.23016 9.05362 8.29312 -12.8757 -20.2968 -5.81188 
22953 7 7.91026 10.1976 5.3838 -0.066296 0.10013 -0.651872 
22965 7 7.33207 11.8331 5.45166 -0.0487016 0.141669 -0.277132 
22741 7 11.5 7.01103 7.05421 2.60767 -0.0303066 -1.56898 
22700 6 10.8104 6.36788 7.23855 -16.1232 -2.07305 18.6415 
22636 1 10.9188 6.69179 9.82281 4.41292 9.41322 12.5117 
22729 4 7.48133 6.61374 9.11192 -11.2017 -8.37685 -27.6127 
22668 7 10.5831 8.59932 7.42923 1.91081 4.36606 -3.16356 
22725 2 7.70374 8.13304 9.39568 27.1073 31.5157 97.4031 
22727 2 7.53968 12.6129 9.75953 17.0918 132.717 81.0999 
22630 6 10.7174 9.56513 7.55044 -8.19223 0.685401 5.24584 
22667 7 11.6785 9.56 7.58776 1.27187 0.741413 -1.30098 
20110 3 13.3722 8.00482 7.87861 -10.9557 -1.08781 -3.87947 
20176 4 13.3404 12.979 8.33811 -6.5685 -6.94833 -4.05286 
20177 4 13.5478 10.5013 8.95979 -6.32498 -0.329042 -16.5086 
20173 2 13.7057 11.9908 9.40771 33.766 -4.90857 77.9545 
20105 2 13.7244 8.93675 9.12343 -1.8241 6.45342 87.0709 
20178 5 12.5598 12.2564 10.4158 -7.71072 -12.6191 -22.7484 
20183 5 12.8988 8.51128 10.3587 -3.60865 -10.8568 -8.20087 
22734 5 8.97942 12.4092 10.1072 -12.475 -12.5657 -17.7256 
22723 1 10.5486 10.4168 9.97488 -3.08122 4.14333 10.0172 
22731 5 9.11607 8.33188 9.85191 -15.6906 -24.3321 -22.558 
20354 9 13.8366 7.1662 8.02076 -1.14222 -12.3681 -25.3779 
17489 7 15.3685 7.53149 7.27379 -6.20277 -2.28666 -3.79676 
17490 7 16.4114 7.08597 6.51817 -0.224722 0.0333981 -0.313312 
17451 6 15.9423 6.78743 7.29642 -18.8039 -17.1274 17.576 
17555 4 19.5148 6.40419 9.24816 -10.8331 2.46005 -18.5584 
20102 1 16.4765 6.46221 9.86905 10.7213 0.183542 19.4566 
20179 5 15.0791 12.3713 9.86379 2.64365 3.70904 -11.975 
20111 5 15.0953 8.51182 9.52882 -26.1217 -13.8458 -15.2306 
17802 9 19.4832 11.878 7.51898 -0.109499 -0.0968635 0.166629 
17554 3 19.6317 8.68088 7.9737 -1.83597 -5.30734 6.22477 
17801 9 19.3812 9.57046 8.10065 0.603848 12.1683 6.31306 
17558 3 19.3121 11.5602 8.35726 -4.08022 -2.14249 -0.615678 
17552 2 19.7279 7.97853 9.40881 24.9982 57.7886 60.6743 
17553 2 19.7446 12.5897 9.5152 42.3798 43.1876 69.5134 
17559 5 21.2085 12.1329 9.83297 6.86094 -0.542868 -10.9312 
17557 5 21.1128 8.33065 9.93016 0.939784 -11.5886 -16.0478 
17556 5 18.49 8.44005 10.194 12.3174 -4.12593 -7.48064 
17631 5 18.754 12.2185 10.6826 2.1385 -5.21945 -4.2943 
20084 1 16.8199 10.2664 10.3615 -11.055 -4.28048 -0.682419 
17566 7 22.7737 6.49197 7.09029 0.094814 0.0184348 0.0513729 
17525 6 23.2369 6.30614 7.97014 -29.968 -5.88729 16.9324 
15249 9 26.4199 12.3989 7.50271 0.844392 0.687452 0.276195 
14924 1 28.8784 6.30371 10.2599 24.7111 19.8927 4.44932 
17459 1 22.8153 6.36449 10.4136 -83.4028 -68.3432 41.2579 
17550 1 22.6813 10.1773 10.109 18.9058 17.7032 8.52347 
15248 9 25.0074 7.30471 8.25379 6.76681 8.85024 8.79959 
15002 3 25.5553 12.1132 7.86039 -4.83526 -8.80164 8.66375 
14932 3 25.8534 7.69566 8.37038 -4.65578 -4.17922 1.32455 
15003 4 25.6929 10.0578 9.40228 -9.07607 -5.90512 -23.9887 
15000 2 25.8234 11.5586 9.33827 29.36 102.955 75.2076 
14927 2 25.9265 8.52626 9.67582 40.125 66.7844 76.2821 
15005 5 27.2586 12.0307 9.65026 -1.58803 -12.5874 -17.0305 
14933 5 27.3368 8.19806 10.2714 9.33475 -14.0293 -17.8765 
15004 5 24.794 12.1885 10.2281 1.06723 2.98502 -12.9276 
14907 1 29.0423 10.186 10.3202 23.4097 18.9692 22.1537 
15008 5 24.7476 8.17989 10.6591 15.741 -0.299798 -2.58571 
14899 6 29.4402 9.94521 7.67407 -3.2251 0.0459748 5.37943 
17637 7 24.0129 13.1402 7.48134 1.60942 0.646925 -0.17836 
25427 5 0.471403 16.2254 10.9577 6.13106 -3.78074 -5.5474 
25424 5 3.05777 19.7432 10.2643 -15.076 -6.39879 -10.0381 
25423 5 0.62854 19.9386 10.7649 4.08814 -4.37763 -10.5212 
25422 4 1.53223 17.8586 9.5283 -9.57528 7.00297 -14.3132 
25421 3 1.35286 20.1653 8.46116 -3.21057 -2.6011 -0.0639812 
25419 2 1.68921 19.4163 9.80763 -42.1187 139.832 65.5602 
25358 5 3.0433 15.9649 10.3935 6.07235 -1.17561 -11.5893 
25352 2 1.62447 16.359 9.9389 56.4841 1.90267 37.414 
25333 1 4.76049 17.9652 10.8964 -5.20053 13.4748 -19.2635 
25357 3 1.27516 15.4524 8.77037 -12.2089 -16.8229 18.4335 
25460 9 1.6173 15.8283 7.87293 0.103397 0.361077 4.1939 
25349 1 4.58657 14.1062 10.6957 7.47226 16.2055 1.28621 
22803 5 6.49129 16.0975 10.8756 1.28733 -0.669378 -0.0752656 
22875 5 6.46084 20.071 11.1158 20.2056 7.97867 11.1178 
25459 9 1.48999 13.6574 8.56205 -1.38977 4.13815 -4.0005 
22801 3 7.03055 16.5942 8.55987 -2.17466 -6.93656 4.20946 
2179 7 -0.387305 20.8468 8.22815 14.4004 2.25602 -6.49561 
22805 3 7.32975 19.3599 8.91011 -8.30445 -8.6285 25.9447 
22908 9 7.54595 19.9046 8.12021 0.00757384 0.26058 6.5539 
22774 6 7.84223 14.1301 6.46407 2.0533 1.2783 1.89916 
22907 9 7.21638 17.5067 8.66763 -0.120189 20.2585 1.74567 
22800 2 7.69826 20.1918 10.1825 70.9792 57.9792 36.9965 
22810 7 9.52718 17.6319 7.67339 -2.03243 0.947251 -1.99677 
22775 6 10.3724 17.5576 8.1234 -18.1227 -9.05789 6.5254 
22811 7 11.0269 17.744 7.42304 6.08791 1.05036 -1.2468 
20249 3 13.6146 20.1923 8.5115 -17.3467 -16.0871 19.5865 
22799 2 7.50164 15.6895 9.76752 0.940823 21.1759 71.2344 
20181 4 13.1648 15.598 8.7498 -9.48037 -31.9519 -11.5113 
20250 4 13.59 17.8559 9.69511 -13.8842 6.45742 -28.2278 
20247 2 13.6446 19.4223 9.89672 2.93015 29.314 71.0376 
20175 2 13.7411 16.3389 9.95052 44.9394 116.104 89.293 
20255 5 12.7826 16.0392 11.1348 -3.06438 -11.3917 -16.7527 
20251 5 12.5994 19.887 10.8751 -0.812041 -0.0420566 10.7316 
22797 1 10.5866 17.8329 10.6706 3.22806 -1.4507 17.0436 
22804 5 8.85928 16.0465 10.2629 -4.45949 -11.1388 -14.5241 
22806 5 9.15709 19.6726 10.6518 26.4907 -12.4578 -11.3433 
20209 6 12.874 15.0323 5.7533 0.476285 -0.363556 1.52028 
20174 8 12.7095 14.4625 7.54514 27.3409 11.0158 -54.0783 
22802 4 7.35344 14.1712 9.46207 -20.9071 9.49015 -28.8171 
22707 1 10.7485 14.2517 10.2767 12.4263 10.5716 6.2588 
20180 3 10.8086 14.0423 7.95232 18.2184 -8.85103 5.05701 
20260 7 13.0324 18.8856 6.99744 0.125094 1.33231 1.23777 
20261 7 12.9162 17.3666 7.33817 -0.562245 10.6237 5.50365 
20401 7 13.4229 15.9899 5.62814 -0.161944 0.313091 -1.28422 
20406 9 10.0189 14.4108 7.4707 -1.26913 2.84676 -2.42793 
20413 7 11.9327 15.1884 5.26927 -0.0684109 -0.0247318 -0.43927 
20222 6 12.7014 18.0477 6.67459 -0.7444 0.711709 -0.952556 
22813 7 7.7456 15.0607 6.62462 -0.0721722 -0.0497464 0.0638838 
22812 7 7.44152 13.8113 7.30537 0.725115 1.4433 6.51148 
17861 7 18.0327 18.1656 5.18632 -0.0414224 -0.0257319 -0.195364 
17849 7 19.1146 19.332 5.5722 -0.0523441 0.152327 -0.564677 
17657 6 18.7692 18.3451 5.88217 -4.87941 -2.67319 15.1441 
20252 5 14.9691 19.7344 10.5394 -8.79964 -13.65 -18.6488 
20182 5 15.2166 16.0409 10.213 -4.11606 -20.4747 -14.4131 
17622 8 18.5634 18.0799 7.75046 32.395 27.7827 -13.7822 
17854 9 15.9449 18.6012 8.0719 -0.291776 1.99554 -3.29828 
17628 3 16.7563 18.0742 8.25458 3.98462 -9.9368 9.48265 
17624 4 19.3217 16.6826 8.46567 -7.73308 -11.5545 -3.70854 
17629 4 18.9827 19.4332 8.85904 -13.6248 -12.2114 1.44323 
17621 2 19.6951 15.6526 9.54627 45.6606 94.897 80.9273 
17623 2 19.5501 20.2671 10.0023 52.5542 25.1068 74.3746 
17630 5 21.0316 19.7719 10.2793 12.4266 -2.57071 -15.1245 
17627 5 21.1919 15.89 9.96206 1.01596 -17.7333 -16.6271 
20155 1 16.8424 17.9752 10.6946 1.96258 10.6954 -17.7057 
17626 5 18.7672 15.8963 10.7355 -8.43832 -8.77173 -12.8737 
20171 1 16.7158 14.1373 10.3208 4.99668 6.51717 -31.8089 
17625 4 19.606 14.0957 9.12525 -5.95009 7.8051 -11.6784 
17564 7 21.4906 17.2833 7.58657 -0.603278 1.56611 -1.26495 
17703 5 18.6795 20.0258 11.2014 -14.923 -12.373 -20.9591 
17709 7 19.905 20.6273 7.34679 2.92103 4.96309 4.37913 
20259 7 15.568 20.8847 8.4035 12.2123 3.52486 -2.27901 
17526 6 22.4132 17.452 7.70597 -7.56055 -6.66833 18.3063 
17563 7 22.8092 16.6576 7.3521 0.256896 0.348342 -1.92802 
17619 1 22.5682 17.9268 10.3236 11.855 12.8315 -6.84684 
15250 9 25.4259 16.554 7.3496 3.23402 4.15539 70.4712 
15006 3 25.6058 15.7572 7.92658 -17.3171 -12.1966 54.9797 
15072 4 25.3173 20.4252 8.40544 -12.9113 -7.89255 -3.00148 
15073 4 25.9599 17.9542 9.15621 -15.4766 5.96662 -34.9859 
15069 2 25.8295 19.4844 9.52152 45.9029 196.592 66.8962 
15075 5 27.2671 19.8707 9.91392 4.86257 -4.19099 -14.7637 
15001 2 25.8934 16.4473 9.39988 30.8902 22.3059 33.4829 
15007 5 27.2951 15.9854 9.7832 -0.578895 -10.5332 -15.802 
14980 1 29.1857 17.8209 10.1444 -12.6386 -20.3955 15.6886 
15074 5 24.8028 19.6389 10.6176 -5.65085 -5.5529 -19.389 
15079 5 24.8396 16.1163 10.4638 8.83179 -3.51417 0.383163 
12533 7 25.4571 18.3754 7.23091 -0.379762 4.41614 6.00898 
17532 1 22.9834 14.1035 10.1761 9.81355 12.027 8.67883 
14998 1 28.6373 13.9834 10.0874 20.0734 24.402 12.7843 
12492 6 25.1645 17.9196 6.43544 -1.27258 -1.70411 -0.931553 
12532 7 24.2391 17.8074 6.45162 -0.0706109 0.00910601 -0.222874 
17636 7 24.2982 14.6547 7.77674 3.14281 -4.70317 -4.42478 
17597 6 27.3956 19.7327 6.47718 -16.3581 -1.03462 1.22015 
17635 7 27.0344 19.9354 7.31032 6.34246 1.1886 -2.41227 
17596 6 23.5563 13.9987 7.66239 -11.4081 -1.5764 4.46975 
14974 6 28.7308 14.0837 7.53935 -5.71585 -10.9972 6.67432 
17634 7 26.9707 18.9124 6.11254 0.288584 0.568528 -0.154038 
15084 7 28.6931 18.2675 6.90767 0.590747 2.76273 -1.54889 
15012 7 28.1952 14.867 7.30744 1.7691 1.80173 -1.67632 
15044 6 29.2899 17.8272 7.55162 -18.4417 -15.2633 14.4456 
15011 7 29.5706 14.1102 6.99075 5.047 0.882738 -0.206691 
25461 9 1.63963 21.1191 8.56579 -0.45319 9.02256 -6.06538 
25417 1 4.459 21.7465 10.9217 -17.3846 -20.1581 -46.3196 
24923 5 0.754769 27.5218 10.9484 5.71152 1.74681 -3.36048 
25425 3 1.35108 22.98 8.77836 -10.5072 -8.21578 18.4732 
24927 5 0.559259 23.61 11.1153 15.7287 -1.55688 7.93605 
25426 5 3.10363 23.8017 10.4009 3.54546 -9.4906 -9.44226 
25420 2 1.64879 23.9265 10.0018 35.4134 98.1584 59.3081 
25401 1 4.97038 25.5329 10.7242 12.007 4.9705 5.77774 
24924 5 3.18735 27.1766 10.4054 -6.1564 -6.11852 -14.0995 
24922 4 1.38256 25.4386 9.75254 -16.4056 10.4083 -17.0578 
24919 2 1.7823 26.9563 9.95451 0.781518 144.615 60.8119 
24921 3 1.55556 27.7248 8.56562 -3.24499 -0.916123 8.26616 
25462 9 1.60156 23.3783 7.96981 -0.055903 0.116265 1.81269 
22871 5 6.64021 23.6959 10.9095 4.83031 -4.69468 -4.55003 
25451 9 2.36751 27.8615 8.13061 0.0516938 0.481091 1.55709 
22375 5 6.78156 27.3777 11.2762 1.74718 -3.91986 -3.81764 
20355 9 13.7553 21.1037 8.67011 -2.64424 21.3082 -0.746564 
22873 3 7.36095 26.8242 8.94079 -1.63571 -2.81067 22.868 
22910 9 7.83453 27.1872 8.16884 0.0143303 0.300728 5.19532 
22881 7 10.5673 22.2037 7.78641 0.174588 0.147369 -0.586032 
22880 7 12.0072 21.7432 8.22322 12.0541 4.39985 -4.53324 
22869 3 7.56442 24.0265 8.5961 -0.847163 -1.29927 0.697794 
22842 6 11.0399 21.8185 8.50693 -11.5092 -8.4486 2.59751 
22909 9 7.42422 24.9915 8.72358 -0.320658 9.48787 -0.633667 
22870 4 7.80675 21.6814 9.76784 -9.71109 13.0717 -14.434 
22781 1 10.8959 21.6885 11.0129 -27.1994 -19.2711 10.7901 
22868 2 7.76545 27.7412 10.1816 38.4125 97.7005 41.0981 
22867 2 7.78902 23.2324 9.92461 53.53 189.437 71.0824 
22381 7 12.0152 26.341 8.4485 11.0568 9.16702 -1.38877 
20253 3 13.4682 23.4016 8.82795 -29.2422 -27.5135 6.68234 
22380 7 10.8121 26.2531 7.54966 0.0747576 0.105965 0.0969012 
22342 6 11.2091 25.8188 8.3988 -19.3796 -2.73313 29.8097 
20317 3 13.3219 27.8427 9.08682 -10.2542 -13.0671 -8.48785 
20248 2 13.7696 24.0294 10.2263 8.51498 3.44131 111.975 
20318 4 13.624 25.5447 10.0164 -29.2503 -19.176 -43.8849 
20315 2 13.7788 27.0543 10.3348 51.2651 -14.4214 82.3215 
22865 1 10.6865 25.3992 10.9226 12.2859 11.127 24.3193 
22872 5 9.17462 23.6871 10.462 5.3883 -15.5068 -13.8241 
22874 5 9.24947 27.6706 10.5948 6.68461 -9.68499 -10.4581 
20356 9 12.5954 23.6209 8.49206 10.2628 3.86371 -9.86889 
25431 7 14.1509 26.52 7.83751 1.06421 4.73017 6.68319 
20323 5 12.8525 23.6161 11.429 2.00637 -7.81836 1.91797 
25430 7 14.093 24.9955 7.86813 1.65999 4.73394 10.3465 
25395 6 14.4016 25.7329 7.27378 -0.138721 0.0908155 -0.153561 
20258 7 15.2294 22.3163 8.12146 1.35119 0.120781 -1.40211 
20223 6 16.0015 21.7513 8.2238 -7.33839 -1.23375 8.99315 
20245 1 16.5342 21.695 10.8038 16.6369 20.8417 21.6341 
17698 4 19.4354 21.7483 9.56107 -11.8831 -3.86654 -28.4113 
20320 5 15.2214 27.4242 10.856 4.34771 -11.4164 -15.36 
20254 5 15.1801 23.5949 10.561 -15.865 -11.3724 -20.7372 
20329 7 17.2434 26.6466 8.28058 4.00514 3.19649 -3.639 
20328 7 16.0419 25.8023 7.61998 1.70051 -0.0173786 -0.0928905 
17803 9 18.6355 24.4714 8.19816 9.15945 9.20904 -0.570355 
20290 6 16.6573 25.8385 8.42977 -27.0684 -4.66623 8.26664 
17697 3 19.4666 23.9299 8.24968 -7.43493 -15.353 7.45403 
17701 3 18.7572 27.5768 9.07536 -11.4617 -29.5408 -3.76866 
17695 2 19.6311 23.298 9.64847 1.14455 5.39058 77.1632 
17696 2 19.6976 27.9701 10.2409 33.5623 100.654 93.7572 
17700 5 20.9899 23.6351 10.1729 -17.596 -7.74449 -19.2001 
17702 5 21.0953 27.3466 10.1236 7.83353 -13.5502 -21.2806 
17699 5 18.7076 23.7838 10.7613 -3.01205 -4.26567 0.801411 
20229 1 17.0048 25.6018 10.9426 18.8093 14.8567 -7.89074 
17708 7 20.0702 22.1005 7.0657 -0.246081 1.39494 0.783504 
17670 6 20.1319 21.2549 6.64674 -0.74245 0.855941 -1.28262 
17707 7 20.7868 25.2363 7.6314 4.66518 4.91819 -0.102452 
17706 7 21.1787 26.5559 8.43819 0.123781 6.52795 6.81583 
17671 6 21.5933 25.7538 7.94146 -0.289397 -4.83392 5.57968 
17804 9 18.1596 28.2261 8.79174 4.32019 -0.385604 -2.99926 
15302 9 22.12 22.0167 7.2663 -10.7852 2.28456 -0.682286 
15082 7 28.9341 21.4367 6.98265 -0.125309 1.91551 -3.14555 
15309 7 26.1711 21.1856 5.56242 -0.0513067 0.353929 -0.581366 
15297 7 25.7773 22.9358 5.36905 0.0247724 0.421933 0.0404291 
15076 3 22.8653 21.7306 7.945 5.24257 -10.2538 7.07579 
15105 6 25.4296 21.9972 5.7434 2.51266 2.79872 8.73178 
15067 1 28.5009 21.8246 10.3102 7.49104 13.7938 35.6255 
17603 1 22.8719 21.8054 10.3091 42.2189 30.8848 65.594 
15070 8 24.6898 21.8654 7.53391 8.68179 21.9916 -5.53601 
15157 7 24.761 24.7113 6.5409 0.100268 1.41462 -2.25377 
17693 1 22.4585 25.6458 10.3024 35.5493 47.0588 64.5599 
15118 6 24.3516 25.0692 5.80024 0.216035 -0.0153414 -0.0808414 
15156 7 23.4675 25.4068 6.08223 0.34815 0.0651539 -0.0158852 
12750 9 28.7793 27.0604 8.02173 -18.1408 -1.31683 -3.56642 
15145 3 25.8709 28.1424 8.32624 -24.8199 -9.854 24.6209 
15077 4 25.2347 23.1977 8.50469 -14.8005 -21.7865 -11.619 
15146 4 25.5466 25.6818 9.29943 -7.71301 17.6868 -15.327 
15143 2 25.8227 27.2278 9.63665 33.3105 57.681 41.1516 
15071 2 25.6377 24.1622 9.58877 42.117 137.526 70.2269 
15078 5 27.0823 23.775 9.8664 3.52577 -1.54646 -12.5605 
15148 5 27.2019 27.5255 10.2775 11.4708 -13.3224 -16.1654 
15051 1 28.9278 25.6837 10.4438 0.328383 13.3152 46.6058 
15147 5 24.7278 27.7419 10.5663 3.65992 -2.08087 -8.37992 
12524 3 29.1596 26.0649 8.01414 -11.2913 -1.23462 9.11123 
15045 6 29.2043 21.7754 7.82857 -18.6105 -11.0349 5.19163 
15251 9 25.5134 27.6474 7.63837 -0.0911928 -0.309553 15.5438 
15151 5 24.6677 23.8201 10.7274 -4.82972 -8.23796 -16.7359 
25312 7 0.118696 4.83235 18.6549 9.17845 -1.55941 -0.490074 
25272 7 0.713701 4.66491 16.0773 1.86169 -0.45892 6.61954 
25198 5 4.5419 2.55475 12.6561 -16.4825 -10.0247 -9.65859 
25195 5 4.3158 -1.09258 12.7632 -0.166336 -2.62597 3.28318 
25511 9 -0.0336396 0.591192 16.0834 2.18349 5.15908 -1.92056 
22635 1 6.05896 0.692999 12.8525 -21.8395 -5.74034 -7.67838 
25268 5 2.06322 2.89899 12.9931 0.781727 -11.6959 -22.1653 
25258 1 0.250924 4.4912 12.7638 6.52883 2.40558 2.03065 
25207 1 0.476342 0.786529 13.0733 13.2129 37.1077 22.3726 
25191 2 3.47612 3.03985 13.5769 19.2809 60.4477 62.8933 
25263 4 3.57926 4.53329 13.9916 -25.7337 0.979829 -26.4513 
25197 4 3.26023 2.0922 14.7531 -9.86782 -23.3644 -4.28818 
25192 4 3.04502 -0.482259 14.848 -10.7279 -16.3096 -8.90243 
25196 3 0.671101 0.803883 15.391 33.9061 -17.5471 10.5248 
25190 8 2.57347 0.873791 15.8142 57.3858 25.6452 12.2791 
25240 6 3.16417 0.422588 17.5716 13.3646 -24.1007 16.7915 
25519 7 3.14941 -0.579607 17.8974 -2.53762 -2.6091 -3.01564 
25507 7 4.09023 0.816757 17.9384 11.0245 2.75772 -1.18586 
25308 6 0.117418 4.58218 15.2734 -27.7585 -2.86299 6.72936 
25270 6 1.61478 4.93899 17.8305 -14.3958 35.4159 -18.2444 
22655 1 6.37544 4.67075 12.8239 -2.04468 4.01862 -5.15179 
25194 5 1.89442 -1.62182 13.1754 -0.0430194 -14.124 -19.7137 
25189 2 3.31878 -1.5892 13.8009 43.1398 -38.2855 90.2222 
25309 7 2.10896 5.5281 18.3573 -2.02277 -5.71618 3.80822 
22683 6 6.34775 0.224192 15.3734 -10.7728 -2.09276 5.92652 
22644 3 6.84138 4.58812 15.1791 17.3313 -15.4889 6.83442 
22650 7 6.36941 -0.694296 15.7573 1.17555 4.85683 -1.84689 
22959 9 6.10984 4.61038 15.8897 -2.79374 4.48228 -1.13818 
22649 6 4.65966 3.61816 17.0848 -13.6685 -10.7528 9.00296 
22684 7 4.17045 3.30672 16.2242 8.41018 12.8065 13.413 
22687 7 6.25664 0.489489 18.6687 4.31468 4.39486 -1.23781 
20062 7 6.71584 2.61676 17.5207 8.12566 7.25404 -0.347501 
25310 7 2.04624 4.00308 18.1534 5.15695 18.1258 4.27533 
22651 7 7.05199 0.643575 15.9631 7.02128 2.40564 6.35123 
22685 7 3.97676 3.57749 17.7022 -2.99017 3.08089 -5.96337 
25236 7 1.02016 0.885433 18.4122 13.3729 4.74509 4.84937 
22760 7 5.77262 4.32449 18.5166 -4.38822 2.1871 -5.64039 
25201 6 0.183335 0.69643 19.0361 -4.26238 -12.1832 19.5472 
25237 7 -0.622907 0.813023 18.4023 17.9352 4.65969 0.535995 
22686 7 6.11306 -0.623976 19.6912 9.71764 6.43374 -3.96876 
20240 6 11.5353 19.6263 19.1569 -21.7792 -5.83709 12.2092 
15278 9 27.9296 28.3251 16.1577 -4.95443 -1.01861 -114.488 
20023 6 7.29345 1.81227 17.4744 -24.8881 -1.30737 -25.5202 
20061 7 7.82053 1.94276 18.2324 -1.91744 0.875082 1.22969 
20063 7 14.3179 -0.311252 18.2225 -1.2179 10.6277 3.08924 
20022 6 14.1645 0.262467 17.4544 -9.72439 -18.1175 -7.04391 
20101 7 8.99921 0.888215 17.052 1.22423 -5.46258 -4.09753 
22931 9 9.87956 -0.656749 15.7069 -4.48138 2.64314 -16.671 
22643 5 10.3472 2.57234 12.1955 -2.53657 -4.72886 -8.66803 
20083 1 12.0539 4.57824 12.2941 19.6884 11.5841 22.403 
22642 5 7.78438 2.32799 12.6693 -1.60779 -8.03431 -19.0267 
22572 5 10.3915 -1.19034 12.4814 -0.886081 -7.49153 -14.3934 
22647 5 8.01803 -1.15376 13.3887 4.4812 -12.0901 -18.8255 
20029 1 12.4935 0.818447 12.5759 0.220066 8.38843 -10 
20095 5 13.8672 2.81253 13.0198 -11.885 -10.8294 -12.1728 
22637 2 9.23854 2.21284 13.1776 46.1593 9.52451 68.2454 
22565 2 9.47766 -0.798971 13.6553 36.8796 54.9829 22.9558 
22641 4 9.6135 0.790931 13.697 -25.9199 -7.1679 -26.9366 
22640 4 9.10375 3.21619 14.2882 -10.7865 -20.4069 -11.8562 
20060 6 12.1924 0.788466 15.1025 -10.0587 -6.91403 9.14917 
20025 7 11.3521 0.403698 15.5028 6.55736 2.32433 0.631213 
22638 8 8.71928 4.48142 15.4296 25.9011 31.4601 -5.11998 
20024 7 12.8371 0.592109 15.8719 6.33782 2.22112 8.3901 
22688 6 9.47912 4.27205 17.1494 8.79315 -4.86569 15.3563 
20130 6 9.64562 0.192503 17.119 -22.4424 -17.8603 -17.6878 
20016 5 13.8732 -1.10957 13.0216 5.15866 -14.5594 -18.6446 
20100 7 9.21165 -0.409434 17.7169 -1.90699 -1.49445 3.88349 
22571 3 10.1322 -1.29489 14.9645 -16.9732 -27.5164 -3.41829 
20135 7 12.5452 0.387954 18.313 6.00692 2.42952 4.55935 
22955 7 8.8263 3.61795 17.8313 2.55298 10.7087 12.4222 
20134 7 11.0596 0.576182 18.3691 -1.38719 2.77456 1.95847 
20379 9 14.8901 2.3675 15.6785 -0.019771 2.37167 -22.2452 
20064 7 14.6984 -0.158787 16.7984 -3.47184 3.95557 -2.07967 
20098 7 11.4241 4.30518 18.6553 1.59095 0.653373 -2.64308 
20366 9 14.4082 2.46591 19.2127 -0.636967 2.17676 -85.4898 
20096 6 11.791 0.356845 18.9815 -17.7278 -9.2973 3.00863 
20099 7 12.789 4.59637 19.1689 9.36787 2.2955 -0.940992 
20378 9 15.4007 0.0444891 14.8487 1.9762 89.5934 32.0222 
20012 2 15.2359 -1.61828 13.5115 14.951 21.5988 76.5927 
17469 5 19.9364 -1.30131 13.4326 -26.8105 -13.2292 -16.7371 
20017 5 16.2815 -1.21496 12.5395 11.6924 -1.5594 0.434093 
20020 5 16.2894 2.4578 12.6312 -9.13014 -4.95634 -12.8948 
17477 1 18.4308 4.50707 12.7514 42.4864 34.4062 54.1326 
17458 1 18.218 0.637135 12.871 41.0563 30.2583 17.4414 
17464 5 19.9587 2.61017 13.0923 0.868188 -12.6092 -12.8158 
20014 3 15.3481 -0.927596 14.9324 -26.7794 -13.9189 37.5511 
20013 2 15.2355 2.86552 13.6686 30.8962 -11.0149 39.904 
20089 4 15.4847 4.41259 13.8828 -13.4015 -10.3264 -18.6999 
17460 2 21.2934 2.30374 13.8302 55.9155 -161.116 65.4261 
17386 2 21.2555 -0.760946 14.0881 42.4081 179.81 -55.2879 
20019 3 15.3382 1.95122 14.9102 -19.6955 -15.0915 -0.533179 
17466 6 17.9686 0.350002 15.508 -23.29 -7.12658 31.6671 
17494 7 17.8227 -0.516925 15.9716 4.22587 3.58471 -2.17769 
17493 7 17.0874 0.702556 15.6741 7.83191 1.88457 -4.70746 
17471 6 19.3044 2.59762 17.0331 -17.1413 -17.4792 9.60971 
17510 7 18.8292 1.81228 16.7504 2.79171 3.14053 -0.672504 
17509 7 19.5895 2.42405 17.9589 5.33065 -1.83056 11.4796 
17463 4 21.2166 0.803669 14.1626 -12.0412 -36.338 -25.8528 
17508 6 18.4176 4.55001 15.2857 -14.8902 1.97357 3.79286 
14959 7 21.6738 0.906306 18.4692 -0.757503 8.08029 6.42638 
14960 7 21.2024 1.37933 17.0972 3.54588 8.40706 -1.94933 
17391 3 21.6317 -1.2753 15.4346 -24.9746 -48.5658 -93.0831 
17825 9 21.5213 -0.58886 16.1283 -1.5893 -2.21427 -182.431 
17462 3 21.3723 3.1008 15.1768 -27.91 -19.2862 22.7344 
14918 6 21.8758 0.788638 17.5321 6.12831 -8.4277 7.45087 
17826 9 20.5136 3.03658 15.6365 10.2383 3.74564 37.6679 
17583 7 18.1253 4.10329 18.3953 4.26855 3.11072 3.08071 
25476 9 3.38351 28.9201 16.3532 -0.967397 5.51948 15.2608 
17582 7 16.778 3.58847 19.04 14.0694 9.20574 -2.99107 
17827 9 21.2941 5.01193 15.149 -0.332965 25.3237 -1.29081 
17472 7 18.6821 3.8867 15.9839 4.17161 8.58877 0.496423 
17473 7 18.9489 5.40433 15.4445 7.50443 7.45641 -5.90174 
17456 7 16.7022 -0.40022 19.1545 12.5809 7.99521 -2.17949 
25450 7 -0.337079 18.1352 19.0911 -2.49803 7.45024 -0.409975 
20311 7 13.3849 28.3387 15.9466 2.2686 4.71278 0.972219 
17723 7 16.9777 22.883 18.9897 7.82642 4.00417 -5.32849 
12353 7 28.9628 8.61882 18.9052 11.2635 14.9957 -5.35269 
15310 7 25.3568 -0.225107 16.7887 7.87305 4.75189 0.749859 
17392 5 22.3788 -1.113 13.0479 8.48106 -0.398291 -5.80568 
14833 2 27.436 -1.7351 13.7653 10.7502 82.584 86.0999 
14837 5 26.0685 -1.25524 13.3193 -20.3051 -14.5138 -16.2703 
14835 3 27.8869 -1.09475 15.1469 -12.1252 -21.1575 -22.8172 