ITEM: TIMESTEP
500000
ITEM: NUMBER OF ATOMS
25517
ITEM: BOX BOUNDS pp pp ff
-3.8959205201285124e-01 6.0088135642019459e+01
-1.9452389155355383e+00 5.9115524189537531e+01
-1.2206056431032383e+01 1.1390111600702880e+02
ITEM: ATOMS id type x y z v_stressx v_stressy v_stressz 
25292 7 5.89857 3.03966 7.5916 -2.46845 -8.52365 -6.28255 
25293 7 5.98077 1.53035 7.7064 -1.90466 -5.89876 -1.89915 
25252 6 5.35811 2.25094 7.51796 -6.33657 -3.23641 0.226844 
25287 5 0.61597 0.755495 10.7564 7.53935 -1.67404 5.28764 
25283 5 2.94291 4.2301 9.842 11.0038 6.42229 -12.87 
25281 4 1.3887 2.44216 9.07367 -12.5162 1.92121 -15.8729 
25280 4 1.07853 5.00258 8.46007 -12.756 -8.63255 -6.74538 
25277 2 1.45655 3.94107 9.49571 51.2156 35.7968 79.2343 
25215 5 2.99957 0.588718 9.72621 -14.3909 -10.0015 -11.7493 
25209 2 1.59287 0.935181 9.44522 8.26201 -58.6271 71.8831 
25188 1 4.8243 2.58953 9.97468 5.13677 1.38481 14.4983 
25214 3 0.796635 0.0137284 8.44439 -2.04139 -4.65338 2.17228 
25282 5 0.520916 4.37471 10.6565 -15.3569 -14.3341 -18.7655 
25458 9 1.40812 -0.435335 7.83607 0.018575 2.10136 1.73832 
25206 1 4.52732 -1.17961 10.115 34.9341 38.0387 20.7881 
22660 5 6.52822 0.875659 10.2203 -1.34185 -5.59132 -15.2911 
22735 5 6.623 4.87348 10.5536 2.42516 -9.1326 -14.9972 
25505 7 1.83983 5.65447 5.50835 -0.0560487 -0.161881 -0.296332 
22662 3 7.17647 4.29529 8.22411 -12.0222 -23.0188 -18.01 
22658 3 7.30314 0.346889 7.89736 -14.9509 -15.2728 -11.4814 
22905 9 7.65252 -0.485879 7.46068 0.019047 -0.41387 -4.4815 
22906 9 7.50322 4.57024 7.35908 -2.75462 4.30433 9.5747 
20115 7 11.1372 2.292 6.49758 0.445523 -0.0102495 -1.15392 
22656 2 7.7059 0.365729 9.40584 22.3874 73.9629 61.975 
20116 7 12.1136 2.88755 7.40659 19.6885 6.66164 2.62394 
20078 6 11.1398 2.86581 7.23657 -15.9277 -11.5569 1.86162 
20106 3 13.741 4.72985 7.46261 -15.8044 -11.0472 42.1959 
22657 2 7.60419 5.1024 9.41016 54.4654 -16.2753 22.5434 
20036 3 13.619 0.47741 7.57109 -16.5188 -19.501 16.7125 
20107 4 13.6664 2.6833 8.8298 -17.8426 -14.113 -33.3404 
20104 2 13.8784 4.18168 8.97251 31.1057 36.5317 93.1371 
20031 2 13.7132 1.1448 8.96008 62.1361 163.887 12.7411 
20108 5 12.6966 4.70757 9.81807 14.8202 12.0558 1.80073 
20112 5 12.4932 0.846951 9.91178 11.2434 -0.22645 7.38537 
22654 1 10.4859 2.78478 9.68506 11.2837 10.3174 11.4293 
22661 5 9.03983 1.11007 9.56315 -7.56155 -6.48051 -16.1803 
22663 5 9.10858 4.7108 9.73761 4.3667 -12.716 -15.2859 
22563 1 10.886 -1.13469 10.1589 0.101279 -0.786148 -4.39157 
22659 4 7.7627 -1.12896 9.68153 -9.55208 -34.7375 -35.0484 
22629 6 11.3751 -1.065 7.76545 -16.8158 5.03805 2.5187 
22669 7 11.9249 -0.207968 7.44815 1.31347 5.21313 -1.26568 
20352 9 13.8605 1.22514 6.87465 0.713743 12.5232 14.746 
20189 7 14.2777 3.18994 6.51456 0.281855 13.5073 8.48377 
20353 9 14.543 5.23857 7.22704 7.75253 13.2155 16.8854 
20148 6 14.5671 2.45013 5.87332 0.144959 0.0581798 0.0949679 
22740 7 11.2703 5.5881 6.8279 3.28483 1.48814 -1.17735 
22738 7 8.76742 5.41578 5.90114 -0.687962 0.704629 -1.36105 
22701 6 7.85394 5.37142 5.69312 0.471818 -0.32817 7.89613 
22739 7 7.886 4.86164 4.87022 -0.0110777 0.0203862 0.00886704 
22670 7 11.9327 -1.89861 7.72342 1.06272 1.65435 -5.23594 
20188 7 15.4435 2.20345 6.22553 0.810931 -0.13914 0.094535 
20037 5 15.0057 0.565552 9.66218 -0.977261 -6.88601 -12.7583 
20118 7 17.8719 2.63796 7.70159 5.65717 -0.319689 -2.87553 
20117 7 17.6995 1.17882 7.44002 3.01001 2.55974 -4.64978 
17799 9 19.455 -0.241526 7.33338 0.319796 6.59309 18.0086 
20077 6 17.1284 2.01775 7.60787 -23.1858 2.30679 26.5853 
17484 3 19.536 4.02271 8.03155 -4.19139 -2.555 -2.48249 
20109 5 15.1822 4.68195 9.53593 -5.78886 -7.32777 -17.0836 
17480 3 19.3808 0.510653 7.95906 -16.4619 -32.0503 10.5718 
17478 2 19.7385 0.13463 9.405 31.7761 34.3284 46.9026 
17479 2 19.7269 4.90401 9.32133 45.9869 113.136 61.3561 
17485 5 21.0972 4.45706 9.83859 4.94404 -15.9926 -17.029 
17483 5 21.125 0.57616 9.92672 5.18431 -9.91961 -13.0888 
17482 5 18.7273 0.612358 10.4453 1.08052 -3.5264 -5.86895 
17560 5 18.5746 4.39351 10.2378 -1.30386 1.46636 -12.8535 
20011 1 16.7883 2.43064 10.1919 50.6516 45.5919 48.5991 
20028 1 16.5417 -1.33752 10.1131 23.8176 17.3357 9.68734 
17481 4 19.613 -1.37684 9.30614 -12.2272 -19.6589 -37.3231 
17800 9 20.2785 3.41394 7.96437 0.304743 -2.89527 -5.40974 
20002 6 16.2002 -1.21507 7.53432 -10.4188 -7.46914 13.5856 
20044 7 15.5857 -0.449442 7.68688 4.33323 8.55387 -2.97017 
20043 7 16.3516 -1.12082 6.60323 0.280916 0.198731 -0.834275 
17377 6 19.8786 -1.6773 6.3322 0.247764 -0.137127 -0.0183424 
17415 7 20.5742 -1.92657 6.98281 2.85999 2.45313 2.14253 
14864 7 23.6314 3.83266 7.75133 5.59402 -4.69792 -1.43256 
14825 6 23.2988 2.969 7.82153 -9.31802 -3.80971 1.29622 
14863 7 24.1611 2.53617 7.90018 3.88763 -1.32388 -0.536848 
17476 1 22.5994 2.5974 10.2549 -65.6623 -40.8981 43.6355 
14928 3 25.5679 4.59148 8.20809 -31.319 -49.9484 -46.6881 
15246 9 24.7065 0.00657495 8.04332 7.98027 10.7707 20.1454 
14856 3 25.5405 0.383335 8.16649 -12.5645 -14.7469 10.6129 
14929 4 25.6618 2.47021 9.27814 -17.8636 -35.2398 -33.4284 
14851 2 25.7726 0.935136 9.6021 20.1068 -190.257 73.8954 
14926 2 25.8313 3.99121 9.61155 28.8655 145.798 89.444 
14857 5 27.172 0.513951 10.0212 -9.6791 -11.8645 -20.855 
14931 5 27.2703 4.30837 10.1061 -28.3212 -11.5849 -18.1322 
14832 1 28.9014 2.41808 10.4207 14.5866 12.2892 44.7868 
14930 5 24.8007 4.37565 10.6576 12.3503 -4.55976 -13.1094 
14934 5 24.7275 0.511689 10.6576 4.19885 -3.91911 -0.788228 
17384 1 22.8636 -1.16741 10.5973 -0.117587 4.24588 9.40546 
14848 1 28.7231 -1.43222 10.2624 15.1713 18.5855 8.6726 
14898 6 29.1786 2.45721 7.88738 -13.7194 -15.3635 6.06785 
15247 9 26.3681 4.66526 7.72718 -1.61935 -1.09407 -15.321 
14826 6 28.1456 -1.3901 7.71182 1.35069 -3.50127 26.0338 
14861 7 27.5228 -0.59177 7.7367 4.99155 5.85974 -2.16199 
14862 7 28.7608 -1.17174 6.9734 0.154755 0.0383531 -0.0605531 
17565 7 23.8543 5.62398 7.62904 12.5344 3.71853 -1.58415 
17491 7 23.3409 -0.830267 7.25909 0.0967378 0.0688846 -0.450519 
12347 6 29.4782 5.3719 8.00631 -15.2583 -7.15672 4.21448 
14939 7 29.2544 3.33895 7.63004 0.44899 -0.927495 -1.22389 
17492 7 24.1978 -1.77871 8.08715 8.22713 2.42472 -6.08516 
17450 6 23.2929 -1.42611 8.02021 -21.6623 -6.85116 18.7929 
25291 7 5.22591 6.53661 7.32751 1.17954 1.64929 -3.21476 
25290 7 3.82687 6.55555 6.86919 -0.69258 1.65912 -4.4165 
25253 6 4.33607 6.71227 7.63615 -9.58905 -11.5818 2.12796 
25517 7 1.84279 7.29014 5.50902 -0.0257318 -0.0553078 -0.551927 
25313 6 1.21101 6.45671 5.78137 6.01276 -5.33054 30.2209 
25362 7 1.19888 10.608 6.31952 -0.0131458 -0.0002243 -0.0181018 
25275 1 4.36027 6.50413 10.1833 4.1791 13.0242 12.9557 
25278 8 0.639374 6.49188 7.63496 52.9919 32.0383 9.73131 
22958 9 3.89074 10.3239 7.2783 -3.45464 1.52112 0.300831 
22732 3 4.70032 10.3548 7.96195 2.34018 -12.6703 13.6257 
25359 5 0.701437 8.49354 11.0939 -9.77907 -10.5546 -17.2343 
25356 5 3.08021 12.146 10.2169 10.1226 0.193072 -12.6377 
25355 5 0.535314 12.2845 10.6518 -2.65918 -5.22235 -7.84886 
25354 4 1.48185 10.2856 9.54639 -13.5808 14.0863 -26.3681 
25353 3 1.39194 12.6945 8.41831 -12.2179 -8.07268 2.96087 
25351 2 1.63225 11.8296 9.72046 39.9092 47.4586 66.5827 
25286 5 2.93236 8.28049 10.0288 -5.42771 -15.9906 -19.101 
25285 4 0.892127 7.85648 8.74192 -20.5641 -18.6597 -4.3054 
25279 2 1.49492 8.71367 9.83417 15.3497 98.3477 76.0479 
25259 1 4.86194 10.2149 10.3927 7.95338 9.46391 54.6997 
25327 6 1.60703 9.7444 6.34125 2.30561 1.23406 -0.888988 
25363 7 1.38635 9.50649 7.2315 0.525778 2.84795 1.60226 
22807 5 6.5607 12.2849 10.8694 -15.915 -14.5289 -18.8104 
22730 5 6.65234 8.34528 10.5398 -4.65414 -14.6283 -13.5601 
22726 8 6.48614 10.4372 7.49213 -1.57734 17.8784 -26.7497 
22761 6 7.05704 10.8316 5.66761 1.75704 2.50625 6.84757 
22733 4 6.9844 11.7221 8.61372 -11.0703 -12.6434 -2.59134 
22728 4 7.23016 9.05362 8.29312 -12.9476 -20.3511 -5.69958 
22953 7 7.91026 10.1976 5.3838 -0.066796 0.100138 -0.652774 
22965 7 7.33207 11.8331 5.45166 -0.0482631 0.141733 -0.277142 
22741 7 11.5 7.01103 7.05421 2.60174 -0.0266062 -1.56538 
22700 6 10.8104 6.36788 7.23855 -16.0868 -2.1875 18.531 
22636 1 10.9188 6.69179 9.82281 4.40471 9.37408 12.2552 
22729 4 7.48133 6.61374 9.11192 -11.3103 -8.4982 -27.6745 
22668 7 10.5831 8.59932 7.42923 1.90789 4.35141 -3.18723 
22725 2 7.70374 8.13304 9.39568 27.4957 32.0933 97.7065 
22727 2 7.53968 12.6129 9.75953 17.1877 131.833 78.9308 
22630 6 10.7174 9.56513 7.55044 -8.19915 0.72691 5.26978 
22667 7 11.6785 9.56 7.58776 1.26932 0.730267 -1.33339 
20110 3 13.3722 8.00482 7.87861 -11.0268 -1.1667 -3.72588 
20176 4 13.3404 12.979 8.33811 -6.57929 -6.95446 -4.10891 
20177 4 13.5478 10.5013 8.95979 -6.24232 -0.295721 -15.6981 
20173 2 13.7057 11.9908 9.40771 33.7361 -5.07683 75.0351 
20105 2 13.7244 8.93675 9.12343 -2.2941 7.12327 83.2386 
20178 5 12.5598 12.2564 10.4158 -7.77183 -12.332 -22.1543 
20183 5 12.8988 8.51128 10.3587 -3.5558 -11.0682 -7.46917 
22734 5 8.97942 12.4092 10.1072 -12.2958 -12.3017 -17.1291 
22723 1 10.5486 10.4168 9.97488 -3.13283 4.28064 9.67883 
22731 5 9.11607 8.33188 9.85191 -15.507 -24.5234 -22.4558 
20354 9 13.8366 7.1662 8.02076 -1.12963 -12.2805 -25.4745 
17489 7 15.3685 7.53149 7.27379 -6.20988 -2.27142 -3.76208 
17490 7 16.4114 7.08597 6.51817 -0.225611 0.0333425 -0.308266 
17451 6 15.9423 6.78743 7.29642 -18.6568 -17.2177 17.4269 
17555 4 19.5148 6.40419 9.24816 -10.7764 2.4223 -18.6372 
20102 1 16.4765 6.46221 9.86905 10.9429 0.0927793 17.6831 
20179 5 15.0791 12.3713 9.86379 2.62396 3.72838 -11.5593 
20111 5 15.0953 8.51182 9.52882 -26.0925 -13.8969 -14.2964 
17802 9 19.4832 11.878 7.51898 -0.109522 -0.0997263 0.167886 
17554 3 19.6317 8.68088 7.9737 -1.86087 -5.28942 6.19775 
17801 9 19.3812 9.57046 8.10065 0.622775 12.1367 6.34245 
17558 3 19.3121 11.5602 8.35726 -4.13862 -2.07675 -1.09433 
17552 2 19.7279 7.97853 9.40881 25.0413 58.5933 61.7308 
17553 2 19.7446 12.5897 9.5152 41.9411 43.1168 68.1022 
17559 5 21.2085 12.1329 9.83297 6.90094 -0.4873 -10.9847 
17557 5 21.1128 8.33065 9.93016 0.931615 -11.7265 -16.135 
17556 5 18.49 8.44005 10.194 12.4321 -4.24378 -7.44768 
17631 5 18.754 12.2185 10.6826 1.87727 -5.31719 -1.01312 
20084 1 16.8199 10.2664 10.3615 -12.1944 -5.17392 -0.497484 
17566 7 22.7737 6.49197 7.09029 0.0948372 0.0180706 0.0508479 
17525 6 23.2369 6.30614 7.97014 -30.0179 -5.90349 16.8704 
15249 9 26.4199 12.3989 7.50271 0.841167 0.687806 0.25492 
14924 1 28.8784 6.30371 10.2599 24.8121 20.2201 4.73866 
17459 1 22.8153 6.36449 10.4136 -84.6737 -68.3438 15.4913 
17550 1 22.6813 10.1773 10.109 18.738 17.6702 8.61684 
15248 9 25.0074 7.30471 8.25379 6.71842 8.85625 8.80305 
15002 3 25.5553 12.1132 7.86039 -4.77891 -8.80271 8.85409 
14932 3 25.8534 7.69566 8.37038 -4.62172 -4.16965 1.25631 
15003 4 25.6929 10.0578 9.40228 -9.11336 -5.99326 -23.9423 
15000 2 25.8234 11.5586 9.33827 29.5233 102.659 75.1795 
14927 2 25.9265 8.52626 9.67582 39.9309 66.4442 75.1886 
15005 5 27.2586 12.0307 9.65026 -1.68672 -12.5872 -17.5009 
14933 5 27.3368 8.19806 10.2714 9.45557 -13.8842 -17.7613 
15004 5 24.794 12.1885 10.2281 0.942906 3.0935 -13.723 
14907 1 29.0423 10.186 10.3202 23.4399 18.7837 23.3636 
15008 5 24.7476 8.17989 10.6591 15.6676 -0.277865 -2.38115 
14899 6 29.4402 9.94521 7.67407 -3.24352 0.033057 5.32439 
17637 7 24.0129 13.1402 7.48134 1.60798 0.647992 -0.190361 
25427 5 0.471403 16.2254 10.9577 6.21919 -3.68549 -4.72556 
25424 5 3.05777 19.7432 10.2643 -14.9412 -6.28802 -10.0041 
25423 5 0.62854 19.9386 10.7649 4.09351 -4.32145 -10.6928 
25422 4 1.53223 17.8586 9.5283 -9.74501 7.05454 -14.8131 
25421 3 1.35286 20.1653 8.46116 -3.22417 -2.56138 -0.0903546 
25419 2 1.68921 19.4163 9.80763 -41.5968 139.364 66.7541 
25358 5 3.0433 15.9649 10.3935 5.96256 -1.24236 -11.8081 
25352 2 1.62447 16.359 9.9389 56.6308 2.60044 39.3325 
25333 1 4.76049 17.9652 10.8964 -4.62571 13.459 -5.95234 
25357 3 1.27516 15.4524 8.77037 -11.9688 -17.2368 18.9018 
25460 9 1.6173 15.8283 7.87293 0.0960244 0.367366 4.20111 
25349 1 4.58657 14.1062 10.6957 6.9829 16.2972 -14.8969 
22803 5 6.49129 16.0975 10.8756 1.39429 -0.31682 0.0450352 
22875 5 6.46084 20.071 11.1158 20.1912 7.96646 8.52444 
25459 9 1.48999 13.6574 8.56205 -1.76112 4.69924 -3.94011 
22801 3 7.03055 16.5942 8.55987 -2.21359 -6.97529 4.07602 
2179 7 -0.387305 20.8468 8.22815 14.4131 2.18372 -6.43237 
22805 3 7.32975 19.3599 8.91011 -8.50719 -8.70192 26.243 
22908 9 7.54595 19.9046 8.12021 0.00956793 0.259177 6.53608 
22774 6 7.84223 14.1301 6.46407 2.02425 1.25994 1.84151 
22907 9 7.21638 17.5067 8.66763 -0.0820605 20.2497 1.74456 
22800 2 7.69826 20.1918 10.1825 72.1143 58.9683 38.6317 
22810 7 9.52718 17.6319 7.67339 -2.04009 0.948588 -1.9839 
22775 6 10.3724 17.5576 8.1234 -17.9701 -9.03514 6.47764 
22811 7 11.0269 17.744 7.42304 6.07257 1.0509 -1.19854 
20249 3 13.6146 20.1923 8.5115 -17.5694 -15.9925 19.538 
22799 2 7.50164 15.6895 9.76752 1.11219 20.9123 71.0041 
20181 4 13.1648 15.598 8.7498 -9.61953 -32.1846 -12.1906 
20250 4 13.59 17.8559 9.69511 -13.8311 6.6655 -28.1989 
20247 2 13.6446 19.4223 9.89672 2.79988 29.5605 70.4874 
20175 2 13.7411 16.3389 9.95052 44.897 117.265 89.1793 
20255 5 12.7826 16.0392 11.1348 -2.91356 -11.3762 -16.1185 
20251 5 12.5994 19.887 10.8751 -0.740424 -0.169257 6.80121 
22797 1 10.5866 17.8329 10.6706 3.50672 -1.48528 20.972 
22804 5 8.85928 16.0465 10.2629 -4.48848 -11.031 -14.2927 
22806 5 9.15709 19.6726 10.6518 26.451 -12.6548 -11.7447 
20209 6 12.874 15.0323 5.7533 0.486515 -0.361783 1.52317 
20174 8 12.7095 14.4625 7.54514 27.1972 11.0657 -53.6132 
22802 4 7.35344 14.1712 9.46207 -20.9479 9.48297 -28.7946 
22707 1 10.7485 14.2517 10.2767 12.3366 10.5491 -5.80888 
20180 3 10.8086 14.0423 7.95232 18.2195 -8.89057 4.73166 
20260 7 13.0324 18.8856 6.99744 0.131899 1.33078 1.25612 
20261 7 12.9162 17.3666 7.33817 -0.552939 10.6323 5.60549 
20401 7 13.4229 15.9899 5.62814 -0.16285 0.311818 -1.28578 
20406 9 10.0189 14.4108 7.4707 -1.27242 2.86348 -2.31523 
20413 7 11.9327 15.1884 5.26927 -0.0685674 -0.0247647 -0.439666 
20222 6 12.7014 18.0477 6.67459 -0.744961 0.712134 -0.963526 
22813 7 7.7456 15.0607 6.62462 -0.0706049 -0.0482949 0.0655312 
22812 7 7.44152 13.8113 7.30537 0.754591 1.43713 6.55167 
17861 7 18.0327 18.1656 5.18632 -0.0414431 -0.0258917 -0.19555 
17849 7 19.1146 19.332 5.5722 -0.0525159 0.152081 -0.564394 
17657 6 18.7692 18.3451 5.88217 -4.86708 -2.64219 15.1681 
20252 5 14.9691 19.7344 10.5394 -8.24567 -13.7239 -17.9937 
20182 5 15.2166 16.0409 10.213 -4.10566 -20.6998 -14.2297 
17622 8 18.5634 18.0799 7.75046 32.192 27.8034 -13.7437 
17854 9 15.9449 18.6012 8.0719 -0.32664 2.00331 -3.26095 
17628 3 16.7563 18.0742 8.25458 4.12344 -9.96407 9.45448 
17624 4 19.3217 16.6826 8.46567 -7.80264 -11.5423 -3.96312 
17629 4 18.9827 19.4332 8.85904 -13.7006 -12.2853 1.4314 
17621 2 19.6951 15.6526 9.54627 46.1263 95.4265 82.5371 
17623 2 19.5501 20.2671 10.0023 53.6805 25.3806 75.3448 
17630 5 21.0316 19.7719 10.2793 12.391 -2.56937 -15.5296 
17627 5 21.1919 15.89 9.96206 1.10654 -17.8016 -16.8889 
20155 1 16.8424 17.9752 10.6946 2.99861 10.6951 -3.93192 
17626 5 18.7672 15.8963 10.7355 -8.68247 -8.84758 -12.0614 
20171 1 16.7158 14.1373 10.3208 4.39954 5.77678 -22.7825 
17625 4 19.606 14.0957 9.12525 -6.04222 7.81362 -12.0867 
17564 7 21.4906 17.2833 7.58657 -0.590646 1.55937 -1.16531 
17703 5 18.6795 20.0258 11.2014 -15.3388 -12.3848 -21.5108 
17709 7 19.905 20.6273 7.34679 2.89113 4.94022 4.32099 
20259 7 15.568 20.8847 8.4035 12.2094 3.52474 -2.30295 
17526 6 22.4132 17.452 7.70597 -7.57062 -6.63671 17.8942 
17563 7 22.8092 16.6576 7.3521 0.257257 0.345101 -1.9178 
17619 1 22.5682 17.9268 10.3236 11.3075 12.692 -20.1071 
15250 9 25.4259 16.554 7.3496 3.22119 4.1738 70.337 
15006 3 25.6058 15.7572 7.92658 -17.2201 -12.2143 55.5973 
15072 4 25.3173 20.4252 8.40544 -12.9877 -7.87965 -3.02581 
15073 4 25.9599 17.9542 9.15621 -15.7499 6.08115 -35.2329 
15069 2 25.8295 19.4844 9.52152 46.9354 195.949 68.3045 
15075 5 27.2671 19.8707 9.91392 4.86725 -4.07482 -14.8623 
15001 2 25.8934 16.4473 9.39988 31.628 22.4859 34.4644 
15007 5 27.2951 15.9854 9.7832 -0.589009 -10.4786 -16.1104 
14980 1 29.1857 17.8209 10.1444 -12.9582 -20.7353 16.9839 
15074 5 24.8028 19.6389 10.6176 -5.71875 -5.21244 -19.3372 
15079 5 24.8396 16.1163 10.4638 8.62296 -3.51517 0.376666 
12533 7 25.4571 18.3754 7.23091 -0.382901 4.47238 5.91452 
17532 1 22.9834 14.1035 10.1761 9.676 12.0492 9.55697 
14998 1 28.6373 13.9834 10.0874 20.0922 24.7776 13.5678 
12492 6 25.1645 17.9196 6.43544 -1.27151 -1.7146 -0.913242 
12532 7 24.2391 17.8074 6.45162 -0.0705084 0.0109069 -0.22895 
17636 7 24.2982 14.6547 7.77674 3.12405 -4.69812 -4.57166 
17597 6 27.3956 19.7327 6.47718 -16.3306 -1.07467 1.20374 
17635 7 27.0344 19.9354 7.31032 6.32051 1.21089 -2.49573 
17596 6 23.5563 13.9987 7.66239 -11.3891 -1.57149 4.59142 
14974 6 28.7308 14.0837 7.53935 -5.68871 -10.8543 7.32512 
17634 7 26.9707 18.9124 6.11254 0.288083 0.570063 -0.155533 
15084 7 28.6931 18.2675 6.90767 0.588459 2.77314 -1.56367 
15012 7 28.1952 14.867 7.30744 1.7695 1.79884 -1.75073 
15044 6 29.2899 17.8272 7.55162 -18.3622 -15.3028 14.6874 
15011 7 29.5706 14.1102 6.99075 5.05297 0.874451 -0.274852 
25461 9 1.63963 21.1191 8.56579 -0.443853 9.01646 -6.03747 
25417 1 4.459 21.7465 10.9217 -16.8683 -19.6875 -21.724 
24923 5 0.754769 27.5218 10.9484 5.62397 1.6627 -3.65439 
25425 3 1.35108 22.98 8.77836 -10.5088 -8.44345 18.5116 
24927 5 0.559259 23.61 11.1153 15.4949 -1.51403 7.45273 
25426 5 3.10363 23.8017 10.4009 3.6107 -9.32303 -9.45597 
25420 2 1.64879 23.9265 10.0018 35.6082 97.6465 59.0954 
25401 1 4.97038 25.5329 10.7242 10.0457 4.67456 -11.0115 
24924 5 3.18735 27.1766 10.4054 -6.22745 -6.18507 -14.2675 
24922 4 1.38256 25.4386 9.75254 -16.491 10.4525 -16.9671 
24919 2 1.7823 26.9563 9.95451 1.53327 144.549 61.7304 
24921 3 1.55556 27.7248 8.56562 -3.23166 -0.931372 8.48957 
25462 9 1.60156 23.3783 7.96981 -0.0562011 0.118625 1.80987 
22871 5 6.64021 23.6959 10.9095 4.93108 -4.48222 -5.0446 
25451 9 2.36751 27.8615 8.13061 0.0520214 0.480933 1.54268 
22375 5 6.78156 27.3777 11.2762 2.24386 -3.95895 -3.35905 
20355 9 13.7553 21.1037 8.67011 -2.59264 21.2845 -0.784149 
22873 3 7.36095 26.8242 8.94079 -1.71889 -2.96759 22.7735 
22910 9 7.83453 27.1872 8.16884 0.0161266 0.302981 5.19829 
22881 7 10.5673 22.2037 7.78641 0.174639 0.148972 -0.603072 
22880 7 12.0072 21.7432 8.22322 12.0834 4.40878 -4.61917 
22869 3 7.56442 24.0265 8.5961 -0.849973 -1.27685 0.775246 
22842 6 11.0399 21.8185 8.50693 -11.5229 -8.48391 2.95713 
22909 9 7.42422 24.9915 8.72358 -0.311204 9.46156 -0.699349 
22870 4 7.80675 21.6814 9.76784 -9.90933 12.9858 -14.7868 
22781 1 10.8959 21.6885 11.0129 -25.0651 -19.5066 29.7205 
22868 2 7.76545 27.7412 10.1816 37.9008 98.0556 38.1359 
22867 2 7.78902 23.2324 9.92461 54.2359 189.543 73.2209 
22381 7 12.0152 26.341 8.4485 11.115 9.21573 -1.54257 
20253 3 13.4682 23.4016 8.82795 -29.4616 -27.5844 6.98943 
22380 7 10.8121 26.2531 7.54966 0.0743266 0.106636 0.0947377 
22342 6 11.2091 25.8188 8.3988 -19.4263 -2.80281 30.2357 
20317 3 13.3219 27.8427 9.08682 -10.3144 -13.0703 -8.04625 
20248 2 13.7696 24.0294 10.2263 8.06749 4.26099 110.899 
20318 4 13.624 25.5447 10.0164 -29.0131 -19.0276 -43.5765 
20315 2 13.7788 27.0543 10.3348 50.5533 -14.1202 82.956 
22865 1 10.6865 25.3992 10.9226 12.7159 11.1101 33.4738 
22872 5 9.17462 23.6871 10.462 5.26028 -15.4796 -14.2098 
22874 5 9.24947 27.6706 10.5948 6.67391 -9.79724 -9.92266 
20356 9 12.5954 23.6209 8.49206 10.3187 3.86124 -9.93576 
25431 7 14.1509 26.52 7.83751 1.08668 4.7435 6.67833 
20323 5 12.8525 23.6161 11.429 2.20268 -7.85779 1.27621 
25430 7 14.093 24.9955 7.86813 1.71052 4.75597 10.3231 
25395 6 14.4016 25.7329 7.27378 -0.140445 0.0903672 -0.155541 
20258 7 15.2294 22.3163 8.12146 1.36529 0.120728 -1.40028 
20223 6 16.0015 21.7513 8.2238 -7.33525 -1.22464 9.04151 
20245 1 16.5342 21.695 10.8038 16.0942 20.4277 31.177 
17698 4 19.4354 21.7483 9.56107 -12.0157 -3.83029 -28.1491 
20320 5 15.2214 27.4242 10.856 4.47197 -11.2866 -15.53 
20254 5 15.1801 23.5949 10.561 -15.681 -11.4669 -20.3572 
20329 7 17.2434 26.6466 8.28058 3.99571 3.216 -3.76448 
20328 7 16.0419 25.8023 7.61998 1.70174 -0.0106394 -0.0986024 
17803 9 18.6355 24.4714 8.19816 9.13174 9.22431 -0.720947 
20290 6 16.6573 25.8385 8.42977 -27.0252 -4.7838 8.92067 
17697 3 19.4666 23.9299 8.24968 -7.28277 -15.4045 8.23916 
17701 3 18.7572 27.5768 9.07536 -11.291 -29.5106 -2.92903 
17695 2 19.6311 23.298 9.64847 1.98933 5.33612 77.4286 
17696 2 19.6976 27.9701 10.2409 33.2034 100.46 93.9055 
17700 5 20.9899 23.6351 10.1729 -17.4649 -7.63874 -19.2994 
17702 5 21.0953 27.3466 10.1236 7.87312 -13.3891 -21.3657 
17699 5 18.7076 23.7838 10.7613 -3.39019 -4.26022 -2.64853 
20229 1 17.0048 25.6018 10.9426 18.5173 14.8599 -18.2386 
17708 7 20.0702 22.1005 7.0657 -0.250883 1.39619 0.780474 
17670 6 20.1319 21.2549 6.64674 -0.737528 0.858653 -1.28121 
17707 7 20.7868 25.2363 7.6314 4.67972 4.91671 -0.0952917 
17706 7 21.1787 26.5559 8.43819 0.157426 6.4864 6.79997 
17671 6 21.5933 25.7538 7.94146 -0.442389 -4.7257 5.48118 
17804 9 18.1596 28.2261 8.79174 4.2892 -0.37475 -3.17959 
15302 9 22.12 22.0167 7.2663 -10.755 2.28544 -0.687348 
15082 7 28.9341 21.4367 6.98265 -0.127977 1.91112 -3.12355 
15309 7 26.1711 21.1856 5.56242 -0.0513954 0.353945 -0.581424 
15297 7 25.7773 22.9358 5.36905 0.0246738 0.421747 0.0408917 
15076 3 22.8653 21.7306 7.945 5.09439 -10.2908 6.84498 
15105 6 25.4296 21.9972 5.7434 2.51486 2.80409 8.73222 
15067 1 28.5009 21.8246 10.3102 7.92706 14.551 30.2532 
17603 1 22.8719 21.8054 10.3091 41.3542 30.8819 63.0379 
15070 8 24.6898 21.8654 7.53391 8.6594 21.9922 -6.07747 
15157 7 24.761 24.7113 6.5409 0.0916414 1.42243 -2.22399 
17693 1 22.4585 25.6458 10.3024 35.1108 46.7394 69.1593 
15118 6 24.3516 25.0692 5.80024 0.216505 -0.0166858 -0.0821852 
15156 7 23.4675 25.4068 6.08223 0.348017 0.066018 -0.014735 
12750 9 28.7793 27.0604 8.02173 -18.1353 -1.30886 -3.55024 
15145 3 25.8709 28.1424 8.32624 -24.9339 -10.0249 23.8394 
15077 4 25.2347 23.1977 8.50469 -14.7976 -21.8232 -11.7495 
15146 4 25.5466 25.6818 9.29943 -7.70103 17.9005 -15.5301 
15143 2 25.8227 27.2278 9.63665 33.2026 57.3772 41.1504 
15071 2 25.6377 24.1622 9.58877 42.2388 137.213 70.5148 
15078 5 27.0823 23.775 9.8664 3.35869 -1.61848 -12.5814 
15148 5 27.2019 27.5255 10.2775 11.4507 -13.2589 -15.8233 
15051 1 28.9278 25.6837 10.4438 0.264969 13.0031 40.9982 
15147 5 24.7278 27.7419 10.5663 3.68923 -1.99307 -7.93706 
12524 3 29.1596 26.0649 8.01414 -11.2958 -1.2847 9.02449 
15045 6 29.2043 21.7754 7.82857 -18.5373 -11.0228 5.22522 
15251 9 25.5134 27.6474 7.63837 -0.0847712 -0.29781 15.5772 
15151 5 24.6677 23.8201 10.7274 -4.86573 -8.25479 -15.8151 
25272 7 0.470657 4.25901 16.1582 1.7676 0.559023 0.974796 
25198 5 4.5419 2.55475 12.6561 -16.3827 -10.8137 -11.3104 
25195 5 4.3158 -1.09258 12.7632 -0.335202 -3.08877 2.92236 
25511 9 -0.0119611 1.10897 16.3171 -0.794356 3.26239 3.24608 
22635 1 6.05896 0.692999 12.8525 -6.44366 3.02221 -7.91983 
25268 5 2.06322 2.89899 12.9931 -0.718676 -10.9413 -21.7313 
25258 1 0.250924 4.4912 12.7638 2.87478 -1.21294 3.81333 
25207 1 0.476342 0.786529 13.0733 13.8905 41.7513 28.2023 
25191 2 3.47612 3.03985 13.5769 19.2238 70.6333 55.8432 
25263 4 3.57926 4.53329 13.9916 -27.4043 5.34663 -39.1264 
25197 4 3.26023 2.0922 14.7531 -12.9045 -13.8079 -3.08881 
25192 4 3.04502 -0.482259 14.848 -9.23799 -11.4879 -2.31977 
25196 3 0.653946 1.00483 15.4624 29.0271 -16.431 23.5732 
25190 8 2.50703 0.856456 15.8571 28.9588 31.0072 -3.93759 
25240 6 3.18691 1.33243 17.5601 -9.13517 -17.8799 5.09302 
25519 7 2.7829 0.940645 18.479 0.300988 10.5383 -3.49876 
25507 7 3.41206 2.32116 17.7739 -2.23533 -14.8661 -25.2637 
25308 6 -0.0500875 4.18388 15.3418 -34.8527 -13.417 16.6378 
25270 6 1.49936 4.60261 18.1361 -23.9467 -16.7382 -12.1979 
22655 1 6.37544 4.67075 12.8239 -8.40348 8.01118 -6.74061 
25194 5 1.89442 -1.62182 13.1754 -1.11692 -13.6752 -19.1846 
25189 2 3.31878 -1.5892 13.8009 45.0918 0.757216 92.4021 
25309 7 2.27239 4.51094 17.5284 15.1921 -1.53003 5.48657 
22683 6 5.83294 0.779862 15.4031 -19.3173 -0.0573347 -3.42393 
22644 3 6.84564 4.64237 15.1656 6.80811 -13.9129 17.7002 
22650 7 6.26452 1.39844 16.0808 6.1112 6.63608 8.81298 
22959 9 6.15686 4.41355 15.9967 1.33395 4.88522 7.35967 
22649 6 3.96131 4.45055 16.6248 -1.28721 7.51796 -47.1603 
22684 7 3.72114 3.62168 16.1188 0.714402 17.7866 4.53488 
22685 7 3.71586 5.17286 16.006 -2.53931 19.4614 14.0368 
22687 7 6.07689 0.639558 18.9198 6.80807 4.25078 0.82549 
20062 7 6.19568 2.70477 18.0808 -8.28062 0.661478 -1.1988 
25310 7 1.61296 5.33122 18.7801 -2.46149 8.12518 4.85451 
22759 7 4.89886 4.65592 18.2384 1.69331 -0.591602 4.29968 
25472 9 1.87309 3.42692 19.067 0.987575 22.519 70.256 
20023 6 6.74363 2.05412 17.7281 -6.10289 -26.3545 -22.7974 
25201 6 0.191854 0.537922 19.2082 -12.6885 -4.84866 7.61043 
22651 7 5.4266 0.0175745 15.8589 6.37276 5.22287 -5.12717 
15278 9 28.0081 28.3817 16.1898 -0.845225 19.6255 5.22403 
22717 6 5.05481 4.18523 19.0932 -15.3604 -7.17888 7.33741 
20061 7 7.61894 2.37043 18.1203 10.9198 1.02026 13.1006 
20022 6 13.2754 -1.0521 17.0562 -16.2607 -30.0417 -6.94332 
20101 7 8.59482 0.796469 17.3106 5.1349 0.670888 0.298147 
22931 9 9.85156 -0.962441 15.7369 3.94542 4.14229 86.5642 
22643 5 10.3472 2.57234 12.1955 -2.56722 -5.60208 -8.55202 
20083 1 12.0539 4.57824 12.2941 22.8433 13.7951 24.5897 
22642 5 7.78438 2.32799 12.6693 -1.79258 -8.15933 -19.3425 
22572 5 10.3915 -1.19034 12.4814 1.86009 -7.04255 -7.70839 
22647 5 8.01803 -1.15376 13.3887 11.5599 -10.2252 -16.1096 
20029 1 12.4935 0.818447 12.5759 4.57705 17.648 -13.5584 
20095 5 13.8672 2.81253 13.0198 -13.5415 -10.8355 -14.2594 
22637 2 9.23854 2.21284 13.1776 45.3301 142.011 71.4348 
22565 2 9.47766 -0.798971 13.6553 35.6614 43.8121 27.6069 
22641 4 9.6135 0.790931 13.697 -27.2288 19.2227 -30.2997 
22640 4 9.10375 3.21619 14.2882 -11.2949 -29.5564 -17.4973 
20060 6 12.2113 0.708322 15.0625 -12.8924 -4.40593 6.11444 
20025 7 11.2325 0.691878 14.899 9.61491 1.22867 -5.02019 
22638 8 8.69418 4.45398 15.4136 -1.97754 7.82184 -75.7471 
20024 7 12.2587 0.0428007 15.8672 5.13035 12.3611 10.9329 
22688 6 9.37057 4.2353 17.1868 -5.90491 -10.5215 -0.75778 
20130 6 9.25495 0.0843128 17.2158 2.9744 6.69573 -10.7044 
20016 5 13.8732 -1.10957 13.0216 5.40487 -14.5667 -19.7262 
20100 7 9.0031 -0.495369 17.9257 -0.958819 0.224287 5.18446 
22967 7 8.94461 4.79308 17.9836 -0.841428 2.71941 -26.8976 
22571 3 10.0332 -1.48428 14.9107 -22.3772 -15.46 12.9692 
20135 7 12.3742 0.0424712 18.4879 3.74309 4.48722 5.23964 
20134 7 10.941 0.497492 18.563 3.41304 1.29519 -0.863665 
22955 7 9.46662 3.25028 17.5694 -2.38019 -5.32789 -21.6418 
20096 6 11.7178 0.449757 19.1251 -12.3383 -8.00494 0.686278 
20379 9 14.5146 1.76656 15.2968 0.11442 -1.16151 -18.3505 
20064 7 14.0401 -0.959728 16.4298 10.6032 0.707361 6.97346 
20098 7 11.1696 5.03616 18.4756 1.44461 1.37731 0.563065 
22911 9 9.97211 28.0422 16.0388 2.90415 13.5741 -13.9629 
17544 6 17.0794 4.34411 18.9601 -16.3623 -9.81521 16.7384 
17474 7 17.7849 -1.62574 15.5949 3.59505 13.979 -4.81208 
20378 9 15.4007 0.0444891 14.8487 0.255373 99.8105 34.7573 
20012 2 15.2359 -1.61828 13.5115 7.47914 142.97 83.4218 
17469 5 19.9364 -1.30131 13.4326 6.95612 -11.5016 -9.61543 
20017 5 16.2815 -1.21496 12.5395 12.6856 -1.24778 -0.284782 
20020 5 16.2894 2.4578 12.6312 -9.5256 -5.68948 -14.1702 
17477 1 18.4308 4.50707 12.7514 27.51 20.9801 66.8119 
17458 1 18.218 0.637135 12.871 33.6326 24.0935 13.9069 
17464 5 19.9587 2.61017 13.0923 1.08961 -12.947 -11.2455 
20014 3 15.3481 -0.927596 14.9324 -27.7333 -6.8531 39.2677 
20013 2 15.2355 2.86552 13.6686 22.2538 -16.6947 72.5297 
20089 4 15.4847 4.41259 13.8828 -20.2503 -7.29897 -28.0382 
17460 2 21.2934 2.30374 13.8302 60.3106 186.17 74.0985 
17386 2 21.2555 -0.760946 14.0881 51.2907 161.856 52.8463 
20019 3 15.3962 2.00931 14.9964 -10.5687 -10.2885 2.52425 
17466 6 18.0251 0.554162 15.4839 -15.5157 -13.484 27.0899 
17494 7 17.0889 0.84154 15.3655 14.229 6.20776 -7.71462 
17493 7 18.4111 1.18039 16.1841 4.31536 12.4272 4.53736 
17471 6 18.601 2.55321 17.4514 -3.77274 -13.9351 -22.5208 
17510 7 18.4288 1.75333 17.9963 3.56743 7.73708 0.726187 
17509 7 19.576 2.63636 17.6125 7.97646 0.243641 1.68588 
17463 4 21.2166 0.803669 14.1626 -11.6435 27.95 -24.4369 
17508 6 17.8366 4.36995 15.4706 -6.15883 -8.04879 39.823 
14959 7 21.2874 -0.143441 18.338 -1.09073 -0.927177 4.1109 
14960 7 21.4795 1.2357 18.0442 -0.795705 -3.80911 2.45408 
17391 3 21.7084 -1.27365 15.4907 -10.2207 -30.7787 23.2466 
17825 9 21.7787 -0.500008 16.1087 4.71556 13.1497 90.6733 
17462 3 21.4108 3.21234 15.1032 -22.1752 -17.2423 28.8435 
14918 6 21.6721 0.382799 17.6466 1.37394 -16.2892 -8.42713 
17826 9 21.1823 2.68664 15.8864 -0.221726 1.57409 45.2624 
17472 7 18.1595 3.66468 16.0879 2.81689 8.60267 1.57674 
17473 7 16.8705 4.15238 15.2874 12.3375 1.27784 -3.01108 
17827 9 21.3161 5.0893 15.3078 0.0508105 44.9619 25.2847 
17582 7 16.4921 3.51336 19.0298 12.4479 9.71187 -2.17098 
17583 7 17.6484 4.1736 18.1725 6.67399 5.34166 0.681673 
20365 9 15.1403 -1.97723 18.8495 -5.98983 19.813 -49.2765 
17457 7 16.9614 -0.564824 19.1183 21.0004 5.086 -2.91236 
17503 6 17.7811 -0.0142015 19.2111 -16.2188 -13.4531 4.10981 
20063 7 13.7479 -1.30255 17.873 6.21155 1.24669 8.81867 
12293 7 29.0615 1.47883 15.7889 8.20974 -0.661175 -4.61683 
12752 9 29.4287 4.16782 18.9132 -13.8549 1.84647 0.445884 
15272 9 27.5032 -1.87473 15.8718 -0.235169 14.8643 0.20383 
14905 7 22.9234 4.88136 19.1701 12.9736 5.48803 -3.54599 
12371 7 29.0072 5.03886 16.2319 12.1662 12.6458 -2.11706 
15310 7 26.7777 -1.00201 17.2728 -1.13862 -5.28894 -9.79662 
22896 7 -0.311234 27.8784 18.3484 3.94675 3.08766 4.98233 
17392 5 22.3788 -1.113 13.0479 12.2892 -0.168296 8.12486 
14833 2 27.436 -1.7351 13.7653 6.7312 36.3692 78.6096 