ITEM: TIMESTEP
110000
ITEM: NUMBER OF ATOMS
25520
ITEM: BOX BOUNDS pp pp ff
-3.8959205201285124e-01 6.0088135642019459e+01
-1.9452389155355383e+00 5.9115524189537531e+01
-1.2206056431032383e+01 1.1390111600702880e+02
ITEM: ATOMS id type x y z v_stressx v_stressy v_stressz 
25292 7 5.89857 3.03966 7.5916 -2.50029 -8.51334 -6.29234 
25293 7 5.98077 1.53035 7.7064 -1.92514 -5.92866 -1.96845 
25252 6 5.35811 2.25094 7.51796 -6.31526 -3.22917 0.292864 
25287 5 0.61597 0.755495 10.7564 7.68619 -1.90771 2.61073 
25283 5 2.94291 4.2301 9.842 10.9793 6.56085 -13.0592 
25281 4 1.3887 2.44216 9.07367 -12.7237 1.90786 -15.3618 
25280 4 1.07853 5.00258 8.46007 -12.7977 -8.66108 -6.53031 
25277 2 1.45655 3.94107 9.49571 51.3913 34.2489 78.577 
25215 5 2.99957 0.588718 9.72621 -14.3998 -9.967 -11.9143 
25209 2 1.59287 0.935181 9.44522 8.60652 -59.7274 71.6308 
25188 1 4.8243 2.58953 9.97468 5.44696 1.2163 15.1302 
25214 3 0.796635 0.0137284 8.44439 -1.77954 -4.63614 4.31926 
25282 5 0.520916 4.37471 10.6565 -14.8707 -14.427 -18.7604 
25458 9 1.40812 -0.435335 7.83607 0.00707617 2.15593 1.73879 
25206 1 4.52732 -1.17961 10.115 34.6865 37.8142 21.1844 
22660 5 6.52822 0.875659 10.2203 -0.957349 -5.5501 -15.4627 
22735 5 6.623 4.87348 10.5536 2.60952 -9.04056 -15.0207 
25505 7 1.83983 5.65447 5.50835 -0.0576078 -0.166258 -0.299371 
22662 3 7.17647 4.29529 8.22411 -11.938 -23.0824 -18.2011 
22658 3 7.30314 0.346889 7.89736 -14.858 -15.0727 -11.4287 
22905 9 7.65252 -0.485879 7.46068 0.0194059 -0.418623 -4.48309 
22906 9 7.50322 4.57024 7.35908 -2.77641 4.3213 9.69783 
20115 7 11.1372 2.292 6.49758 0.443469 -0.00944451 -1.17337 
22656 2 7.7059 0.365729 9.40584 20.9982 73.4012 60.819 
20116 7 12.1136 2.88755 7.40659 19.625 6.65298 2.43038 
20078 6 11.1398 2.86581 7.23657 -15.8861 -11.568 2.02291 
20106 3 13.741 4.72985 7.46261 -15.7698 -10.9886 42.4851 
22657 2 7.60419 5.1024 9.41016 52.8296 -16.235 22.6482 
20036 3 13.619 0.47741 7.57109 -16.4473 -19.4112 17.4501 
20107 4 13.6664 2.6833 8.8298 -17.9659 -14.1589 -34.4616 
20104 2 13.8784 4.18168 8.97251 31.2346 36.1679 96.0636 
20031 2 13.7132 1.1448 8.96008 62.2098 163.97 15.4567 
20108 5 12.6966 4.70757 9.81807 14.763 12.0298 0.781244 
20112 5 12.4932 0.846951 9.91178 11.0251 -0.257572 5.75671 
22654 1 10.4859 2.78478 9.68506 11.0237 9.98753 11.574 
22661 5 9.03983 1.11007 9.56315 -7.40388 -6.47645 -16.1071 
22663 5 9.10858 4.7108 9.73761 4.4649 -12.7142 -15.6182 
22563 1 10.886 -1.13469 10.1589 -0.551136 -0.533935 -17.6982 
22659 4 7.7627 -1.12896 9.68153 -9.07426 -34.5869 -35.1342 
22629 6 11.3751 -1.065 7.76545 -16.7305 5.11526 2.79332 
22669 7 11.9249 -0.207968 7.44815 1.29413 5.20022 -1.36679 
20352 9 13.8605 1.22514 6.87465 0.691396 12.5057 14.5122 
20189 7 14.2777 3.18994 6.51456 0.269547 13.5012 8.20931 
20353 9 14.543 5.23857 7.22704 7.75032 13.189 16.7642 
20148 6 14.5671 2.45013 5.87332 0.145194 0.0580708 0.102887 
22740 7 11.2703 5.5881 6.8279 3.27245 1.47327 -1.20875 
22738 7 8.76742 5.41578 5.90114 -0.685704 0.69552 -1.36522 
22701 6 7.85394 5.37142 5.69312 0.475918 -0.295897 7.95884 
22739 7 7.886 4.86164 4.87022 -0.0111572 0.0202201 0.00844587 
22670 7 11.9327 -1.89861 7.72342 1.03891 1.61855 -5.35214 
20188 7 15.4435 2.20345 6.22553 0.811528 -0.139867 0.0531783 
20037 5 15.0057 0.565552 9.66218 -1.02383 -6.96335 -13.6459 
20118 7 17.8719 2.63796 7.70159 5.61869 -0.355927 -3.08271 
20117 7 17.6995 1.17882 7.44002 2.99038 2.5233 -4.83813 
17799 9 19.455 -0.241526 7.33338 0.300664 6.57848 17.8803 
20077 6 17.1284 2.01775 7.60787 -23.0587 2.52267 27.4997 
17484 3 19.536 4.02271 8.03155 -4.11915 -2.53115 -2.11445 
20109 5 15.1822 4.68195 9.53593 -5.76905 -7.18869 -17.8012 
17480 3 19.3808 0.510653 7.95906 -16.2591 -31.7688 11.4568 
17478 2 19.7385 0.13463 9.405 32.2434 33.9471 47.6118 
17479 2 19.7269 4.90401 9.32133 45.6388 112.638 58.3211 
17485 5 21.0972 4.45706 9.83859 4.97245 -16.0182 -16.4705 
17483 5 21.125 0.57616 9.92672 5.17011 -9.93758 -13.5285 
17482 5 18.7273 0.612358 10.4453 1.0068 -3.58275 -6.00507 
17560 5 18.5746 4.39351 10.2378 -1.08321 1.6415 -11.802 
20011 1 16.7883 2.43064 10.1919 50.3212 45.8701 50.1423 
20028 1 16.5417 -1.33752 10.1131 23.4475 17.0207 9.84972 
17481 4 19.613 -1.37684 9.30614 -12.342 -19.5119 -37.7088 
17800 9 20.2785 3.41394 7.96437 0.292475 -2.89784 -5.53265 
20002 6 16.2002 -1.21507 7.53432 -10.3332 -7.44481 13.6437 
20044 7 15.5857 -0.449442 7.68688 4.28877 8.53547 -3.07495 
20043 7 16.3516 -1.12082 6.60323 0.280382 0.198835 -0.845353 
17377 6 19.8786 -1.6773 6.3322 0.248627 -0.137786 -0.00644861 
17415 7 20.5742 -1.92657 6.98281 2.83383 2.47696 1.96708 
14864 7 23.6314 3.83266 7.75133 5.58019 -4.70066 -1.50915 
14825 6 23.2988 2.969 7.82153 -9.26509 -3.79646 1.48676 
14863 7 24.1611 2.53617 7.90018 3.85398 -1.33709 -0.638615 
17476 1 22.5994 2.5974 10.2549 -65.7603 -41.2606 55.904 
14928 3 25.5679 4.59148 8.20809 -31.0791 -49.8736 -46.167 
15246 9 24.7065 0.00657495 8.04332 7.9093 10.7617 19.9789 
14856 3 25.5405 0.383335 8.16649 -12.5109 -14.7553 10.7503 
14929 4 25.6618 2.47021 9.27814 -17.5671 -35.1792 -34.2773 
14851 2 25.7726 0.935136 9.6021 19.152 -189.709 76.1671 
14926 2 25.8313 3.99121 9.61155 27.9102 146.046 90.6569 
14857 5 27.172 0.513951 10.0212 -9.67919 -11.9515 -21.0928 
14931 5 27.2703 4.30837 10.1061 -28.3465 -11.5212 -18.4931 
14832 1 28.9014 2.41808 10.4207 14.2061 12.2758 34.8443 
14930 5 24.8007 4.37565 10.6576 12.7425 -4.47433 -12.8731 
14934 5 24.7275 0.511689 10.6576 4.63032 -3.95547 -0.996754 
17384 1 22.8636 -1.16741 10.5973 -0.269118 4.0585 6.25161 
14848 1 28.7231 -1.43222 10.2624 15.0725 18.8674 5.52169 
14898 6 29.1786 2.45721 7.88738 -13.6316 -15.2113 6.42363 
15247 9 26.3681 4.66526 7.72718 -1.61948 -1.09743 -15.3254 
14826 6 28.1456 -1.3901 7.71182 1.33751 -3.3174 26.4054 
14861 7 27.5228 -0.59177 7.7367 5.00434 5.83499 -2.23355 
14862 7 28.7608 -1.17174 6.9734 0.154634 0.037114 -0.0644005 
17565 7 23.8543 5.62398 7.62904 12.5093 3.72134 -1.63474 
17491 7 23.3409 -0.830267 7.25909 0.0926765 0.0701073 -0.462172 
12347 6 29.4782 5.3719 8.00631 -15.2397 -7.16327 4.15204 
14939 7 29.2544 3.33895 7.63004 0.443011 -0.934338 -1.2388 
17492 7 24.1978 -1.77871 8.08715 8.11255 2.42098 -6.26989 
17450 6 23.2929 -1.42611 8.02021 -21.3631 -6.88726 19.2654 
25291 7 5.22591 6.53661 7.32751 1.16848 1.63769 -3.23116 
25290 7 3.82687 6.55555 6.86919 -0.717164 1.63811 -4.48822 
25253 6 4.33607 6.71227 7.63615 -9.50653 -11.5346 2.28611 
25517 7 1.84279 7.29014 5.50902 -0.0271515 -0.0635301 -0.551487 
25313 6 1.21101 6.45671 5.78137 6.08888 -4.94467 30.2824 
25362 7 1.19888 10.608 6.31952 -0.017998 -0.0186872 -0.0177376 
25275 1 4.36027 6.50413 10.1833 3.97978 12.6478 5.08153 
25278 8 0.639374 6.49188 7.63496 52.7887 31.5984 8.90722 
22958 9 3.89074 10.3239 7.2783 -3.50125 1.4848 0.219031 
22732 3 4.70032 10.3548 7.96195 2.48308 -12.5195 13.9024 
25359 5 0.701437 8.49354 11.0939 -9.77475 -10.6399 -16.8242 
25356 5 3.08021 12.146 10.2169 9.93162 0.255643 -12.7295 
25355 5 0.535314 12.2845 10.6518 -2.4032 -5.25315 -7.44897 
25354 4 1.48185 10.2856 9.54639 -13.5073 14.2557 -26.4213 
25353 3 1.39194 12.6945 8.41831 -12.5656 -7.96504 4.70096 
25351 2 1.63225 11.8296 9.72046 40.5018 48.1957 65.6176 
25286 5 2.93236 8.28049 10.0288 -5.50615 -16.0939 -18.9877 
25285 4 0.892127 7.85648 8.74192 -20.5782 -18.4768 -4.43953 
25279 2 1.49492 8.71367 9.83417 15.4233 98.5985 76.4151 
25259 1 4.86194 10.2149 10.3927 8.21928 9.17618 61.1951 
25327 6 1.60703 9.7444 6.34125 2.36336 1.45311 -0.855172 
25363 7 1.38635 9.50649 7.2315 0.454674 2.60302 1.39032 
22807 5 6.5607 12.2849 10.8694 -15.3529 -14.1772 -17.6438 
22730 5 6.65234 8.34528 10.5398 -4.41922 -14.7249 -13.7793 
22726 8 6.48614 10.4372 7.49213 -1.6239 17.7674 -26.6518 
22761 6 7.05704 10.8316 5.66761 1.79341 2.5226 6.87275 
22733 4 6.9844 11.7221 8.61372 -10.9365 -12.6132 -2.63529 
2035 7 -0.385306 13.302 7.8489 6.39387 0.435653 -1.85085 
22728 4 7.23016 9.05362 8.29312 -12.8673 -20.2237 -5.62033 
22953 7 7.91026 10.1976 5.3838 -0.0667187 0.0997218 -0.653034 
22965 7 7.33207 11.8331 5.45166 -0.0495402 0.141435 -0.277928 
22741 7 11.5 7.01103 7.05421 2.59585 -0.0451903 -1.5722 
22700 6 10.8104 6.36788 7.23855 -15.9427 -1.99225 18.7221 
22636 1 10.9188 6.69179 9.82281 4.93658 9.82616 12.4429 
22729 4 7.48133 6.61374 9.11192 -10.9871 -8.3959 -27.5454 
22668 7 10.5831 8.59932 7.42923 1.87423 4.33065 -3.21555 
22725 2 7.70374 8.13304 9.39568 26.5842 31.6102 98.1013 
22727 2 7.53968 12.6129 9.75953 17.1646 132.715 81.7673 
22630 6 10.7174 9.56513 7.55044 -8.11406 0.768713 5.35273 
22667 7 11.6785 9.56 7.58776 1.25354 0.723863 -1.31938 
20110 3 13.3722 8.00482 7.87861 -10.8701 -0.890114 -3.80311 
20176 4 13.3404 12.979 8.33811 -6.5117 -6.94722 -4.09431 
20177 4 13.5478 10.5013 8.95979 -6.00419 -0.362976 -16.4623 
20173 2 13.7057 11.9908 9.40771 32.4632 -4.44994 77.6327 
20105 2 13.7244 8.93675 9.12343 -2.88012 5.82545 86.179 
20178 5 12.5598 12.2564 10.4158 -7.61594 -12.4224 -22.6615 
20183 5 12.8988 8.51128 10.3587 -3.34834 -11.0671 -8.40906 
22734 5 8.97942 12.4092 10.1072 -12.4023 -12.3938 -17.5128 
22723 1 10.5486 10.4168 9.97488 -2.97153 4.10104 9.6851 
22731 5 9.11607 8.33188 9.85191 -15.553 -24.1651 -22.4115 
20354 9 13.8366 7.1662 8.02076 -1.17242 -12.4187 -25.3839 
17489 7 15.3685 7.53149 7.27379 -6.22797 -2.30603 -3.79074 
17490 7 16.4114 7.08597 6.51817 -0.225736 0.0328662 -0.313093 
17451 6 15.9423 6.78743 7.29642 -18.632 -17.0118 17.6425 
17555 4 19.5148 6.40419 9.24816 -10.6084 2.48072 -18.2087 
20102 1 16.4765 6.46221 9.86905 10.9834 0.142211 19.1797 
20179 5 15.0791 12.3713 9.86379 2.73097 3.62433 -12.0607 
20111 5 15.0953 8.51182 9.52882 -26.0672 -13.6729 -15.4048 
17802 9 19.4832 11.878 7.51898 -0.112503 -0.0993281 0.162505 
17554 3 19.6317 8.68088 7.9737 -1.83173 -5.29948 6.13853 
17801 9 19.3812 9.57046 8.10065 0.589037 12.1564 6.40837 
17558 3 19.3121 11.5602 8.35726 -3.94431 -2.12673 -0.705315 
17552 2 19.7279 7.97853 9.40881 24.2288 57.2984 60.5666 
17553 2 19.7446 12.5897 9.5152 42.0692 43.2563 71.9022 
17559 5 21.2085 12.1329 9.83297 6.98684 -0.555655 -11.34 
17557 5 21.1128 8.33065 9.93016 0.989212 -11.5088 -15.7813 
17556 5 18.49 8.44005 10.194 12.5876 -3.69555 -7.39052 
17631 5 18.754 12.2185 10.6826 1.98737 -5.51621 -4.83867 
20084 1 16.8199 10.2664 10.3615 -10.7009 -4.10638 -0.288808 
17566 7 22.7737 6.49197 7.09029 0.0938868 0.0180816 0.0516686 
17525 6 23.2369 6.30614 7.97014 -29.7609 -5.80382 17.6011 
15249 9 26.4199 12.3989 7.50271 0.843439 0.682795 0.261384 
14924 1 28.8784 6.30371 10.2599 25.2134 20.0572 14.4262 
17459 1 22.8153 6.36449 10.4136 -83.1019 -68.3637 41.6934 
17550 1 22.6813 10.1773 10.109 18.9165 17.4738 8.24963 
15248 9 25.0074 7.30471 8.25379 6.71011 8.82455 8.66216 
15002 3 25.5553 12.1132 7.86039 -4.77073 -8.74665 8.86759 
14932 3 25.8534 7.69566 8.37038 -4.62724 -4.15158 1.38773 
15003 4 25.6929 10.0578 9.40228 -8.99812 -5.83357 -23.3589 
15000 2 25.8234 11.5586 9.33827 29.0485 102.372 73.0023 
14927 2 25.9265 8.52626 9.67582 39.5131 66.0458 73.6582 
15005 5 27.2586 12.0307 9.65026 -1.53858 -12.6465 -17.318 
14933 5 27.3368 8.19806 10.2714 9.6372 -13.861 -17.73 
15004 5 24.794 12.1885 10.2281 0.890788 2.99374 -13.7891 
14907 1 29.0423 10.186 10.3202 23.4653 18.6666 22.7791 
15008 5 24.7476 8.17989 10.6591 15.5714 -0.0901527 -1.98388 
14899 6 29.4402 9.94521 7.67407 -3.21699 0.0688977 5.39318 
17637 7 24.0129 13.1402 7.48134 1.60469 0.645072 -0.197146 
25427 5 0.471403 16.2254 10.9577 6.63395 -3.47702 -4.69841 
25424 5 3.05777 19.7432 10.2643 -14.8671 -6.15764 -9.48388 
25423 5 0.62854 19.9386 10.7649 4.28812 -4.24808 -9.74517 
25422 4 1.53223 17.8586 9.5283 -9.61549 7.28123 -14.256 
25421 3 1.35286 20.1653 8.46116 -3.20708 -2.56037 -0.126818 
25419 2 1.68921 19.4163 9.80763 -42.1337 139.356 64.7989 
25358 5 3.0433 15.9649 10.3935 5.93761 -1.21372 -11.3735 
25352 2 1.62447 16.359 9.9389 56.6905 2.7329 36.7506 
25333 1 4.76049 17.9652 10.8964 -5.66661 13.4276 -30.7493 
25357 3 1.27516 15.4524 8.77037 -12.2499 -17.682 18.9996 
25460 9 1.6173 15.8283 7.87293 0.0933706 0.361926 4.26361 
25349 1 4.58657 14.1062 10.6957 7.17119 16.2575 -5.56108 
22803 5 6.49129 16.0975 10.8756 1.73301 -0.412668 0.35746 
22875 5 6.46084 20.071 11.1158 20.4138 8.21779 8.19478 
25459 9 1.48999 13.6574 8.56205 -1.23724 5.07588 -4.32697 
22801 3 7.03055 16.5942 8.55987 -2.22554 -6.86802 4.0143 
2179 7 -0.387305 20.8468 8.22815 14.3771 2.15582 -6.3916 
22805 3 7.32975 19.3599 8.91011 -8.51467 -8.45924 25.6861 
22908 9 7.54595 19.9046 8.12021 0.00839853 0.255595 6.54881 
22774 6 7.84223 14.1301 6.46407 2.0706 1.30071 1.98484 
22907 9 7.21638 17.5067 8.66763 -0.0700763 20.2259 1.85151 
22800 2 7.69826 20.1918 10.1825 71.6188 57.6292 39.1538 
22810 7 9.52718 17.6319 7.67339 -2.04521 0.941852 -2.03038 
22775 6 10.3724 17.5576 8.1234 -17.9187 -9.00659 6.84426 
22811 7 11.0269 17.744 7.42304 6.05447 1.04155 -1.29852 
20249 3 13.6146 20.1923 8.5115 -17.4167 -15.9554 19.848 
22799 2 7.50164 15.6895 9.76752 1.20982 20.7505 71.9424 
20181 4 13.1648 15.598 8.7498 -9.48926 -31.8026 -11.1473 
20250 4 13.59 17.8559 9.69511 -13.6908 6.6178 -27.0566 
20247 2 13.6446 19.4223 9.89672 3.21682 28.7824 68.0682 
20175 2 13.7411 16.3389 9.95052 43.911 115.517 86.5822 
20255 5 12.7826 16.0392 11.1348 -3.01198 -11.4302 -16.5523 
20251 5 12.5994 19.887 10.8751 -0.644189 -0.0120598 4.2471 
22797 1 10.5866 17.8329 10.6706 3.696 -1.48526 27.1311 
22804 5 8.85928 16.0465 10.2629 -4.43286 -11.0238 -14.4058 
22806 5 9.15709 19.6726 10.6518 26.5498 -12.357 -11.6179 
20209 6 12.874 15.0323 5.7533 0.4816 -0.354033 1.49873 
20174 8 12.7095 14.4625 7.54514 27.1754 10.7693 -53.9116 
22802 4 7.35344 14.1712 9.46207 -20.9764 9.4282 -29.3397 
22707 1 10.7485 14.2517 10.2767 11.6224 10.5298 -27.3719 
20180 3 10.8086 14.0423 7.95232 18.2946 -8.75669 5.09178 
20260 7 13.0324 18.8856 6.99744 0.124346 1.32931 1.23956 
20261 7 12.9162 17.3666 7.33817 -0.579732 10.6036 5.54942 
20401 7 13.4229 15.9899 5.62814 -0.162356 0.311155 -1.27968 
20406 9 10.0189 14.4108 7.4707 -1.28881 2.82213 -2.45266 
20413 7 11.9327 15.1884 5.26927 -0.0685851 -0.0249045 -0.439004 
20222 6 12.7014 18.0477 6.67459 -0.736872 0.717906 -0.963051 
22813 7 7.7456 15.0607 6.62462 -0.0731413 -0.0505998 0.0573434 
22812 7 7.44152 13.8113 7.30537 0.71592 1.41533 6.40774 
17861 7 18.0327 18.1656 5.18632 -0.0415585 -0.0257286 -0.1954 
17849 7 19.1146 19.332 5.5722 -0.0530858 0.152589 -0.565264 
17657 6 18.7692 18.3451 5.88217 -4.83138 -2.66725 15.2034 
20252 5 14.9691 19.7344 10.5394 -8.25758 -13.5345 -17.9294 
20182 5 15.2166 16.0409 10.213 -3.78322 -20.4087 -14.0108 
17622 8 18.5634 18.0799 7.75046 32.1823 27.8205 -14.2163 
17854 9 15.9449 18.6012 8.0719 -0.333159 2.01927 -3.29388 
17628 3 16.7563 18.0742 8.25458 4.16179 -9.93374 9.61988 
17624 4 19.3217 16.6826 8.46567 -7.7288 -11.5437 -3.64882 
17629 4 18.9827 19.4332 8.85904 -13.5436 -12.1124 1.47051 
17621 2 19.6951 15.6526 9.54627 46.2717 95.4484 85.0895 
17623 2 19.5501 20.2671 10.0023 52.4674 24.3698 75.6057 
17630 5 21.0316 19.7719 10.2793 12.4541 -2.42453 -15.6886 
17627 5 21.1919 15.89 9.96206 0.878956 -17.8488 -17.9817 
20155 1 16.8424 17.9752 10.6946 1.12673 10.5093 -35.5365 
17626 5 18.7672 15.8963 10.7355 -8.80452 -8.97143 -12.8159 
20171 1 16.7158 14.1373 10.3208 5.6085 6.84739 -0.780468 
17625 4 19.606 14.0957 9.12525 -5.94161 7.9398 -12.0405 
17564 7 21.4906 17.2833 7.58657 -0.608764 1.54971 -1.35301 
17703 5 18.6795 20.0258 11.2014 -15.0245 -12.0248 -21.1112 
17709 7 19.905 20.6273 7.34679 2.89356 4.9271 4.39812 
20259 7 15.568 20.8847 8.4035 12.1582 3.52753 -2.40695 
17526 6 22.4132 17.452 7.70597 -7.51972 -6.60671 18.4225 
17563 7 22.8092 16.6576 7.3521 0.251238 0.348125 -1.99748 
17619 1 22.5682 17.9268 10.3236 11.1641 12.8446 -57.2375 
15250 9 25.4259 16.554 7.3496 3.19737 4.16743 70.3686 
15006 3 25.6058 15.7572 7.92658 -17.1328 -12.195 55.3311 
15072 4 25.3173 20.4252 8.40544 -12.9099 -7.71699 -2.6348 
15073 4 25.9599 17.9542 9.15621 -15.7041 6.01571 -35.21 
15069 2 25.8295 19.4844 9.52152 46.4813 195.518 66.8384 
15075 5 27.2671 19.8707 9.91392 5.17556 -4.02911 -14.3903 
15001 2 25.8934 16.4473 9.39988 31.0285 22 34.1283 
15007 5 27.2951 15.9854 9.7832 -0.516006 -10.5626 -16.1846 
14980 1 29.1857 17.8209 10.1444 -13.1516 -20.8554 15.4775 
15074 5 24.8028 19.6389 10.6176 -5.9583 -5.30373 -19.7049 
15079 5 24.8396 16.1163 10.4638 8.79921 -3.33121 -0.30781 
12533 7 25.4571 18.3754 7.23091 -0.436344 4.37792 5.8601 
17532 1 22.9834 14.1035 10.1761 9.45787 12.0581 9.68956 
14998 1 28.6373 13.9834 10.0874 19.843 24.6796 13.4986 
12492 6 25.1645 17.9196 6.43544 -1.26583 -1.70353 -0.914499 
12532 7 24.2391 17.8074 6.45162 -0.0712682 0.00876818 -0.234124 
17636 7 24.2982 14.6547 7.77674 3.08534 -4.73261 -4.55746 
17597 6 27.3956 19.7327 6.47718 -16.3248 -0.955911 0.883553 
17635 7 27.0344 19.9354 7.31032 6.33018 1.13866 -2.29989 
17596 6 23.5563 13.9987 7.66239 -11.3536 -1.53607 4.65248 
14974 6 28.7308 14.0837 7.53935 -5.66896 -10.8685 7.47385 
17634 7 26.9707 18.9124 6.11254 0.287626 0.567692 -0.149415 
15084 7 28.6931 18.2675 6.90767 0.590001 2.76138 -1.52354 
15012 7 28.1952 14.867 7.30744 1.76811 1.79283 -1.7507 
15044 6 29.2899 17.8272 7.55162 -18.362 -15.3042 14.2689 
15011 7 29.5706 14.1102 6.99075 5.04088 0.867025 -0.29038 
25461 9 1.63963 21.1191 8.56579 -0.463027 9.01646 -5.96518 
25417 1 4.459 21.7465 10.9217 -16.8171 -19.514 -32.7999 
24923 5 0.754769 27.5218 10.9484 5.97825 2.02118 -1.95884 
25425 3 1.35108 22.98 8.77836 -10.3639 -8.16413 18.2494 
24927 5 0.559259 23.61 11.1153 15.6328 -1.47017 8.50923 
25426 5 3.10363 23.8017 10.4009 3.73497 -9.21454 -9.54202 
25420 2 1.64879 23.9265 10.0018 35.0864 97.5506 58.7564 
25401 1 4.97038 25.5329 10.7242 12.2566 5.26078 5.08286 
24924 5 3.18735 27.1766 10.4054 -6.08296 -6.07806 -14.1254 
24922 4 1.38256 25.4386 9.75254 -16.2957 10.3055 -17.0578 
24919 2 1.7823 26.9563 9.95451 0.620926 144.444 60.283 
24921 3 1.55556 27.7248 8.56562 -3.18298 -0.893124 8.33435 
25462 9 1.60156 23.3783 7.96981 -0.0576983 0.116801 1.81597 
22871 5 6.64021 23.6959 10.9095 4.74591 -4.65378 -4.82869 
25451 9 2.36751 27.8615 8.13061 0.0496539 0.478269 1.54936 
22375 5 6.78156 27.3777 11.2762 2.21445 -3.87636 -5.35591 
20355 9 13.7553 21.1037 8.67011 -2.64104 21.2683 -0.877909 
22873 3 7.36095 26.8242 8.94079 -1.7583 -2.71819 22.3977 
22910 9 7.83453 27.1872 8.16884 0.0156745 0.299418 5.20071 
22881 7 10.5673 22.2037 7.78641 0.171422 0.147931 -0.593938 
22880 7 12.0072 21.7432 8.22322 12.0521 4.4101 -4.56015 
22869 3 7.56442 24.0265 8.5961 -0.845429 -1.2881 0.700483 
22842 6 11.0399 21.8185 8.50693 -11.3907 -8.54753 2.51025 
22909 9 7.42422 24.9915 8.72358 -0.306883 9.451 -0.607861 
22870 4 7.80675 21.6814 9.76784 -9.8075 13.1202 -15.0118 
22781 1 10.8959 21.6885 11.0129 -25.0247 -19.2795 28.0724 
22868 2 7.76545 27.7412 10.1816 37.8026 97.0138 39.8946 
22867 2 7.78902 23.2324 9.92461 54.0567 190.012 74.3749 
22381 7 12.0152 26.341 8.4485 11.0689 9.15293 -1.5187 
20253 3 13.4682 23.4016 8.82795 -29.3793 -27.6129 6.88587 
22380 7 10.8121 26.2531 7.54966 0.0737039 0.105884 0.101506 
22342 6 11.2091 25.8188 8.3988 -19.2838 -2.65273 29.8427 
20317 3 13.3219 27.8427 9.08682 -10.2416 -13.0153 -7.65368 
20248 2 13.7696 24.0294 10.2263 7.5956 3.85951 110.861 
20318 4 13.624 25.5447 10.0164 -29.1148 -18.8348 -43.5112 
20315 2 13.7788 27.0543 10.3348 51.1651 -14.9982 82.2926 
22865 1 10.6865 25.3992 10.9226 11.6421 11.1175 -4.13552 
22872 5 9.17462 23.6871 10.462 5.40597 -15.6124 -14.0214 
22874 5 9.24947 27.6706 10.5948 6.81481 -9.57246 -9.78382 
20356 9 12.5954 23.6209 8.49206 10.2867 3.85734 -9.87277 
25431 7 14.1509 26.52 7.83751 1.0677 4.73113 6.75658 
20323 5 12.8525 23.6161 11.429 2.3113 -7.77779 1.00483 
25430 7 14.093 24.9955 7.86813 1.68233 4.71577 10.456 
25395 6 14.4016 25.7329 7.27378 -0.138067 0.0916344 -0.161083 
20258 7 15.2294 22.3163 8.12146 1.3277 0.103824 -1.47508 
20223 6 16.0015 21.7513 8.2238 -7.24769 -1.18798 9.26265 
20245 1 16.5342 21.695 10.8038 16.3191 20.613 33.2534 
17698 4 19.4354 21.7483 9.56107 -11.8426 -3.6591 -28.2001 
20320 5 15.2214 27.4242 10.856 4.47897 -11.1256 -14.8457 
20254 5 15.1801 23.5949 10.561 -15.9191 -11.6359 -20.7778 
20329 7 17.2434 26.6466 8.28058 3.9994 3.18838 -3.68107 
20328 7 16.0419 25.8023 7.61998 1.69599 -0.0182664 -0.0906415 
17803 9 18.6355 24.4714 8.19816 9.11748 9.19632 -0.696999 
20290 6 16.6573 25.8385 8.42977 -26.9667 -4.64184 8.65558 
17697 3 19.4666 23.9299 8.24968 -7.32548 -15.3435 7.71787 
17701 3 18.7572 27.5768 9.07536 -11.4123 -29.37 -3.31781 
17695 2 19.6311 23.298 9.64847 1.11555 5.1048 76.5605 
17696 2 19.6976 27.9701 10.2409 33.327 99.7202 90.7643 
17700 5 20.9899 23.6351 10.1729 -17.2323 -7.61811 -18.7857 
17702 5 21.0953 27.3466 10.1236 7.9774 -13.4243 -20.3065 
17699 5 18.7076 23.7838 10.7613 -3.03964 -4.31867 -1.32634 
20229 1 17.0048 25.6018 10.9426 17.6556 14.781 -35.8402 
17708 7 20.0702 22.1005 7.0657 -0.248565 1.38703 0.800863 
17670 6 20.1319 21.2549 6.64674 -0.736561 0.865396 -1.26718 
17707 7 20.7868 25.2363 7.6314 4.67205 4.90509 -0.0816674 
17706 7 21.1787 26.5559 8.43819 0.126484 6.48296 6.77072 
17671 6 21.5933 25.7538 7.94146 -0.350441 -4.72157 5.41802 
17804 9 18.1596 28.2261 8.79174 4.32163 -0.394625 -3.04058 
15302 9 22.12 22.0167 7.2663 -10.7826 2.27536 -0.640332 
15082 7 28.9341 21.4367 6.98265 -0.135851 1.89879 -3.0605 
15309 7 26.1711 21.1856 5.56242 -0.0522311 0.352811 -0.580313 
15297 7 25.7773 22.9358 5.36905 0.0240123 0.42122 0.0399855 
15076 3 22.8653 21.7306 7.945 5.20972 -10.2245 6.75604 
15105 6 25.4296 21.9972 5.7434 2.54434 2.83017 8.71268 
15067 1 28.5009 21.8246 10.3102 7.21241 13.9331 24.6782 
17603 1 22.8719 21.8054 10.3091 41.8031 30.6684 66.899 
15070 8 24.6898 21.8654 7.53391 8.49301 21.8651 -5.65277 
15157 7 24.761 24.7113 6.5409 0.0586826 1.41552 -2.17071 
17693 1 22.4585 25.6458 10.3024 35.2495 46.7046 63.9822 
15118 6 24.3516 25.0692 5.80024 0.218415 -0.0152519 -0.0805367 
15156 7 23.4675 25.4068 6.08223 0.346899 0.0652859 -0.0146619 
12750 9 28.7793 27.0604 8.02173 -18.1521 -1.33549 -3.51051 
15145 3 25.8709 28.1424 8.32624 -24.8738 -9.76879 24.5145 
15077 4 25.2347 23.1977 8.50469 -14.7551 -21.7887 -11.557 
15146 4 25.5466 25.6818 9.29943 -7.72373 17.9976 -15.2284 
15143 2 25.8227 27.2278 9.63665 33.771 57.4293 41.3033 
15071 2 25.6377 24.1622 9.58877 42.3582 136.883 67.6837 
15078 5 27.0823 23.775 9.8664 3.53849 -1.52387 -11.9701 
15148 5 27.2019 27.5255 10.2775 11.5162 -13.2192 -15.7023 
15051 1 28.9278 25.6837 10.4438 0.369153 13.0216 49.8319 
15147 5 24.7278 27.7419 10.5663 3.7081 -1.98001 -7.79655 
12524 3 29.1596 26.0649 8.01414 -11.2364 -1.21762 8.99415 
15045 6 29.2043 21.7754 7.82857 -18.4472 -10.9552 5.36534 
15251 9 25.5134 27.6474 7.63837 -0.100969 -0.317874 15.5283 
15151 5 24.6677 23.8201 10.7274 -4.8753 -8.09605 -15.2581 
25272 7 0.575956 4.39071 16.064 5.37772 -1.69478 -1.16104 
25198 5 4.5419 2.55475 12.6561 -17.4228 -9.93112 -9.78692 
25195 5 4.3158 -1.09258 12.7632 -0.307817 -2.81319 3.92352 
25511 9 -0.0724623 0.669844 16.0026 -28.4693 4.74223 -4.14342 
22635 1 6.05896 0.692999 12.8525 -28.2542 -7.09399 -15.7918 
25268 5 2.06322 2.89899 12.9931 -0.475462 -11.456 -23.2965 
25258 1 0.250924 4.4912 12.7638 13.9841 6.54741 2.55155 
25207 1 0.476342 0.786529 13.0733 12.7544 36.554 16.6919 
25191 2 3.47612 3.03985 13.5769 18.7548 112.796 69.7903 
25263 4 3.57926 4.53329 13.9916 -25.9589 3.7583 -26.8162 
25197 4 3.26023 2.0922 14.7531 -12.5159 -28.4568 -8.80419 
25192 4 3.04502 -0.482259 14.848 -8.29385 -12.1197 -4.78622 
25196 3 0.616888 1.0588 15.3349 14.0693 -19.657 -1.09709 
25190 8 2.46194 0.903421 15.7775 -0.98952 38.1165 -3.58593 
25240 6 2.33794 0.407972 17.6954 1.55421 -17.2375 46.0692 
25519 7 3.31976 0.200439 18.1007 0.903859 2.66842 -9.32912 
25507 7 2.04961 1.23607 18.3374 -1.13662 17.4909 4.1075 
22649 6 4.58296 4.4886 17.2889 -7.47945 6.20243 -29.1693 
25308 6 0.114366 4.69013 15.2858 -40.715 0.000582136 -8.18456 
25270 6 1.43847 3.72154 17.5935 1.4003 0.383327 -15.9841 
25310 7 2.19594 3.50064 18.1306 0.721111 2.40637 10.2435 
22655 1 6.37544 4.67075 12.8239 -2.76272 5.92025 -4.92559 
25194 5 1.89442 -1.62182 13.1754 -0.567732 -14.3095 -19.2029 
25189 2 3.31878 -1.5892 13.8009 46.056 107.802 94.5826 
25309 7 0.719941 3.92158 18.2084 7.02218 0.430995 1.28386 
22683 6 5.97433 1.06745 15.3147 -12.7765 -8.56757 -6.15454 
22650 7 6.40481 1.57621 16.0522 -0.913984 4.07886 8.23363 
22684 7 3.71375 4.33741 17.6852 4.25518 -0.757438 2.76902 
22644 3 6.77822 4.41197 15.1205 35.3293 -14.392 8.76572 
22651 7 5.16464 1.65214 15.1426 18.2237 6.89735 -5.2649 
22959 9 6.10866 4.17536 15.8946 5.73702 3.57239 4.14168 
22759 7 5.5959 4.58267 18.6322 0.273386 1.58516 -3.86294 
22687 7 5.76479 1.03855 18.8245 8.30028 0.819086 1.60551 
25236 7 0.498092 0.17811 18.6384 5.22505 3.23336 -3.94485 
22685 7 4.58253 5.37111 16.8566 -0.159313 4.80273 5.74131 
25201 6 -0.311772 0.481749 19.0662 -14.892 -7.2702 8.25595 
25471 9 2.77264 -1.39878 19.1027 -0.646441 2.02468 -18.7645 
22653 7 6.77516 -1.29066 16.1692 3.13976 0.869025 -3.17601 
25205 7 0.657697 -2.44397 16.5849 -0.0831882 -1.55712 -2.0164 
20023 6 7.33449 1.51329 17.695 -9.68439 -9.21797 -22.9207 
20061 7 7.88892 2.06038 18.2914 4.56868 -1.04245 7.29147 
20022 6 13.4677 -0.75557 17.1155 -8.51129 -10.4664 -0.960073 
20062 7 7.80364 0.740997 17.7279 -1.7544 -13.5667 1.16626 
20101 7 10.0734 0.111758 17.4285 1.37746 1.2456 -2.76414 
22931 9 9.43616 -0.933454 15.7439 3.59403 1.35695 0.0537239 
22643 5 10.3472 2.57234 12.1955 -3.93845 -5.58053 -8.51192 
20083 1 12.0539 4.57824 12.2941 21.0041 12.0002 22.9738 
22642 5 7.78438 2.32799 12.6693 -1.98985 -8.105 -19.24 
22572 5 10.3915 -1.19034 12.4814 -1.12329 -7.96552 -7.43969 
22647 5 8.01803 -1.15376 13.3887 8.684 -12.7296 -18.0757 
20029 1 12.4935 0.818447 12.5759 -5.49386 9.43019 -14.1536 
20095 5 13.8672 2.81253 13.0198 -10.4943 -10.863 -16.6793 
22637 2 9.23854 2.21284 13.1776 48.061 23.2968 62.9074 
22565 2 9.47766 -0.798971 13.6553 34.869 53.2989 31.1337 
22641 4 9.6135 0.790931 13.697 -30.3478 -4.24108 -27.5253 
22640 4 9.10375 3.21619 14.2882 -13.8142 -17.4629 -5.38773 
20060 6 12.0712 1.32708 15.0163 -17.3155 -1.70199 5.17775 
20025 7 12.2951 0.656 15.7525 3.05716 5.01683 2.54669 
22638 8 8.69427 4.4793 15.458 62.3563 39.1252 32.5559 
20024 7 11.1207 1.38733 14.8636 4.14248 0.893587 -4.60497 
22688 6 9.48468 4.56535 17.2319 -0.524575 -8.08429 28.5648 
20130 6 9.67627 -0.771009 17.4901 -2.07121 10.9883 -10.2987 
20016 5 13.8732 -1.10957 13.0216 5.29737 -14.644 -17.249 
20100 7 9.41998 -0.772024 18.4108 1.35132 -0.152286 25.0714 
22967 7 9.46786 3.80157 17.9304 1.8051 2.88702 11.3845 
22571 3 9.95162 -1.39824 14.9888 -16.981 -12.6077 -5.52485 
20064 7 14.0351 -0.862782 16.338 8.66307 2.28861 8.58329 
20135 7 12.7802 0.264855 18.7741 1.04237 2.2454 -6.93687 
22955 7 9.26312 5.438 17.7681 -1.42551 -6.21688 -27.5011 
20063 7 13.9563 -1.11462 17.8618 -2.30729 1.16825 -21.3182 
20098 7 11.6937 4.77018 18.896 1.3994 0.244583 -0.222661 
20379 9 16.1293 1.71021 15.1815 -3.1326 5.44335 -22.5037 
20378 9 15.4007 0.0444891 14.8487 3.37287 81.8052 27.6211 
20012 2 15.2359 -1.61828 13.5115 17.3563 -58.5406 80.5659 
17469 5 19.9364 -1.30131 13.4326 3.84879 -10.8935 -11.6868 
20017 5 16.2815 -1.21496 12.5395 9.84497 -1.54159 -4.3936 
20020 5 16.2894 2.4578 12.6312 -9.44039 -4.65403 -11.7865 
17477 1 18.4308 4.50707 12.7514 48.3587 41.4775 61.3968 
17458 1 18.218 0.637135 12.871 40.8397 30.396 7.86199 
17464 5 19.9587 2.61017 13.0923 -2.33678 -12.6604 -16.9593 
20014 3 15.3481 -0.927596 14.9324 -27.258 -14.6443 32.385 
20013 2 15.2355 2.86552 13.6686 26.0278 -36.0808 65.9906 
20089 4 15.4847 4.41259 13.8828 -12.9107 -4.93528 -17.4961 
17460 2 21.2934 2.30374 13.8302 67.4012 146.882 82.3484 
17386 2 21.2555 -0.760946 14.0881 51.7938 111.196 39.8676 
20019 3 15.2555 1.95421 14.931 -13.9564 -6.56753 -0.642472 
17466 6 17.8166 0.289972 15.3485 -34.5357 -15.9788 -2.41852 
17494 7 17.4593 -0.545429 15.7235 11.3394 6.96132 -6.79065 
17493 7 18.0308 0.831868 16.075 4.25851 0.261268 -9.26628 
17471 6 18.3652 2.3622 17.4452 -44.7972 -26.5864 -33.7822 
17510 7 19.1059 2.47605 17.973 -6.92113 -1.77601 3.47473 
17509 7 17.8887 1.74507 17.9679 -3.08264 -1.10561 -1.52467 
17463 4 21.2166 0.803669 14.1626 -11.5699 15.3265 -25.9189 
17472 7 19.2458 3.80662 15.2935 32.0399 7.39396 -5.84878 
17508 6 18.2561 4.08451 15.3193 -4.95023 -5.88858 19.023 
17473 7 17.8886 3.50165 16.0751 5.02064 9.25775 7.92844 
14959 7 21.1121 1.07821 18.135 0.693051 7.7611 4.84573 
14960 7 21.2904 1.4513 16.6836 0.183688 13.1571 6.77223 
17391 3 21.5294 -1.26599 15.5397 -17.461 -26.3458 36.1798 
17825 9 21.5943 -0.460788 16.1282 1.03809 16.9541 87.3637 
17462 3 21.0988 3.10554 15.1303 -16.0836 -20.8096 5.79812 
14918 6 21.6397 0.776318 17.3568 -16.0124 -10.1483 9.36255 
17583 7 17.6132 4.03441 18.3999 2.69317 5.13679 -2.28771 
17582 7 16.22 4.39936 18.6516 -4.02141 1.18533 -1.77711 
17544 6 17.071 4.54758 19.0054 -18.8948 -12.397 10.1085 
25476 9 3.22142 28.5561 16.2936 -0.0587744 2.07811 -118.257 
20346 7 12.9826 23.7774 19.1217 8.65738 5.3146 -1.2758 
15061 6 23.8555 16.1564 19.1047 -15.8157 -14.9081 12.5506 
12293 7 28.9453 1.07482 15.5728 8.42758 3.60019 -9.07439 
17826 9 21.1148 4.05934 14.95 -3.58868 39.0897 -2.06911 
12752 9 29.3521 3.87603 18.4736 -29.8284 1.37956 -2.31799 
17392 5 22.3788 -1.113 13.0479 12.0037 0.365343 7.70549 
15272 9 27.3472 -1.66265 15.8984 1.00441 7.20256 138.232 
14833 2 27.436 -1.7351 13.7653 8.03599 70.1013 73.6022 
14837 5 26.0685 -1.25524 13.3193 2.92872 -11.7065 -14.7474 
14835 3 27.8314 -1.16407 15.1973 -13.1336 -28.9414 41.6805 
17465 5 22.4822 2.65522 12.8638 2.29171 1.68265 1.65224 
14838 5 28.4591 -1.17305 12.8109 0.774343 -5.49084 -10.8035 
14840 5 28.4301 2.34442 12.9979 5.10919 -1.74303 4.11598 
14906 1 24.3647 4.44957 12.9572 48.6558 38.6751 -73.8897 
14849 1 24.5191 0.684911 13.2379 25.5962 17.6886 -7.78327 