ITEM: TIMESTEP
150000
ITEM: NUMBER OF ATOMS
25520
ITEM: BOX BOUNDS pp pp ff
-3.8959205201285124e-01 6.0088135642019459e+01
-1.9452389155355383e+00 5.9115524189537531e+01
-1.2206056431032383e+01 1.1390111600702880e+02
ITEM: ATOMS id type x y z v_stressx v_stressy v_stressz 
25292 7 5.89857 3.03966 7.5916 -2.50942 -8.48948 -6.15168 
25293 7 5.98077 1.53035 7.7064 -1.94059 -5.90226 -1.91421 
25252 6 5.35811 2.25094 7.51796 -6.29885 -3.25168 0.202616 
25287 5 0.61597 0.755495 10.7564 7.87971 -1.44672 5.54078 
25283 5 2.94291 4.2301 9.842 11.0478 6.4482 -12.816 
25281 4 1.3887 2.44216 9.07367 -12.6608 1.92983 -15.4148 
25280 4 1.07853 5.00258 8.46007 -12.7563 -8.56603 -6.40631 
25277 2 1.45655 3.94107 9.49571 51.6049 35.1643 78.2802 
25215 5 2.99957 0.588718 9.72621 -14.31 -10.0104 -11.813 
25209 2 1.59287 0.935181 9.44522 8.68308 -59.4381 72.3025 
25188 1 4.8243 2.58953 9.97468 5.21579 0.909284 14.5598 
25214 3 0.796635 0.0137284 8.44439 -1.84843 -4.69248 2.81002 
25282 5 0.520916 4.37471 10.6565 -15.2671 -14.8109 -18.3253 
25458 9 1.40812 -0.435335 7.83607 0.0166294 2.13943 1.76524 
25206 1 4.52732 -1.17961 10.115 34.7775 37.8754 20.5353 
22660 5 6.52822 0.875659 10.2203 -1.1469 -5.63772 -15.6642 
22735 5 6.623 4.87348 10.5536 2.53199 -9.00416 -14.0067 
25505 7 1.83983 5.65447 5.50835 -0.0573816 -0.165292 -0.298178 
15139 7 23.4274 24.1054 15.7466 17.9506 12.7404 -5.65477 
22662 3 7.17647 4.29529 8.22411 -12.0948 -23.0369 -18.9303 
22658 3 7.30314 0.346889 7.89736 -14.8778 -15.2168 -11.4729 
22905 9 7.65252 -0.485879 7.46068 0.0181599 -0.418405 -4.49384 
22906 9 7.50322 4.57024 7.35908 -2.73546 4.30911 9.75296 
20115 7 11.1372 2.292 6.49758 0.442327 -0.00877768 -1.17926 
22656 2 7.7059 0.365729 9.40584 21.4865 74.5211 63.3543 
20116 7 12.1136 2.88755 7.40659 19.6201 6.68824 2.50421 
20078 6 11.1398 2.86581 7.23657 -15.8344 -11.6034 2.0872 
20106 3 13.741 4.72985 7.46261 -15.6723 -10.9596 42.8247 
22657 2 7.60419 5.1024 9.41016 53.9213 -16.0308 23.465 
20036 3 13.619 0.47741 7.57109 -16.5198 -19.4672 16.6707 
20107 4 13.6664 2.6833 8.8298 -17.8373 -14.1104 -33.7024 
20104 2 13.8784 4.18168 8.97251 31.2586 36.2253 92.9555 
20031 2 13.7132 1.1448 8.96008 62.047 163.944 13.8218 
20108 5 12.6966 4.70757 9.81807 14.6902 11.9091 1.01003 
20112 5 12.4932 0.846951 9.91178 11.1698 -0.332903 6.09339 
22654 1 10.4859 2.78478 9.68506 11.3911 10.1139 11.9545 
22661 5 9.03983 1.11007 9.56315 -7.55621 -6.69385 -16.6382 
22663 5 9.10858 4.7108 9.73761 4.47862 -12.7085 -15.5666 
22563 1 10.886 -1.13469 10.1589 -0.302708 -0.6034 -14.3738 
22659 4 7.7627 -1.12896 9.68153 -9.1861 -34.8435 -35.6379 
22629 6 11.3751 -1.065 7.76545 -16.7919 5.07706 2.51248 
22669 7 11.9249 -0.207968 7.44815 1.3041 5.20611 -1.29168 
20352 9 13.8605 1.22514 6.87465 0.712946 12.5249 14.666 
20189 7 14.2777 3.18994 6.51456 0.274639 13.5054 8.35459 
20353 9 14.543 5.23857 7.22704 7.73643 13.1953 16.7086 
20148 6 14.5671 2.45013 5.87332 0.144785 0.05804 0.098512 
22740 7 11.2703 5.5881 6.8279 3.27372 1.47359 -1.1996 
22738 7 8.76742 5.41578 5.90114 -0.684557 0.701495 -1.3693 
22701 6 7.85394 5.37142 5.69312 0.477557 -0.323036 7.98781 
22739 7 7.886 4.86164 4.87022 -0.0111642 0.0203777 0.00827821 
22670 7 11.9327 -1.89861 7.72342 1.05604 1.64986 -5.2422 
20188 7 15.4435 2.20345 6.22553 0.812076 -0.138816 0.0803927 
20037 5 15.0057 0.565552 9.66218 -0.82084 -6.78247 -12.6963 
20118 7 17.8719 2.63796 7.70159 5.65518 -0.356732 -3.02403 
20117 7 17.6995 1.17882 7.44002 3.01637 2.51253 -4.76082 
17799 9 19.455 -0.241526 7.33338 0.30026 6.5788 17.9135 
20077 6 17.1284 2.01775 7.60787 -23.1638 2.50815 27.0752 
17484 3 19.536 4.02271 8.03155 -4.16817 -2.55736 -2.16003 
20109 5 15.1822 4.68195 9.53593 -5.86189 -7.42894 -17.8487 
17480 3 19.3808 0.510653 7.95906 -16.2752 -31.6407 11.862 
17478 2 19.7385 0.13463 9.405 32.3513 34.3095 44.8954 
17479 2 19.7269 4.90401 9.32133 46.18 113.164 60.8535 
17485 5 21.0972 4.45706 9.83859 4.99963 -15.9847 -16.6344 
17483 5 21.125 0.57616 9.92672 5.07913 -10.0277 -12.9783 
17482 5 18.7273 0.612358 10.4453 0.936665 -3.77158 -5.49661 
17560 5 18.5746 4.39351 10.2378 -0.974128 1.73706 -11.5127 
20011 1 16.7883 2.43064 10.1919 50.2959 45.9251 48.18 
20028 1 16.5417 -1.33752 10.1131 23.7739 16.9382 10.0019 
17481 4 19.613 -1.37684 9.30614 -12.1595 -19.5121 -37.3814 
17800 9 20.2785 3.41394 7.96437 0.292591 -2.90426 -5.54061 
20002 6 16.2002 -1.21507 7.53432 -10.3338 -7.52675 13.7431 
20044 7 15.5857 -0.449442 7.68688 4.309 8.55945 -2.95624 
20043 7 16.3516 -1.12082 6.60323 0.280289 0.201031 -0.834052 
17377 6 19.8786 -1.6773 6.3322 0.248029 -0.138469 -0.0131513 
17415 7 20.5742 -1.92657 6.98281 2.84916 2.49266 2.08129 
14864 7 23.6314 3.83266 7.75133 5.58346 -4.71117 -1.47747 
14825 6 23.2988 2.969 7.82153 -9.29219 -3.78026 1.38041 
14863 7 24.1611 2.53617 7.90018 3.87501 -1.33998 -0.576586 
17476 1 22.5994 2.5974 10.2549 -65.9369 -41.2179 56.626 
14928 3 25.5679 4.59148 8.20809 -31.3705 -49.8646 -46.6193 
15246 9 24.7065 0.00657495 8.04332 7.95481 10.7798 20.058 
14856 3 25.5405 0.383335 8.16649 -12.5099 -14.7472 10.708 
14929 4 25.6618 2.47021 9.27814 -17.9488 -35.0815 -34.5484 
14851 2 25.7726 0.935136 9.6021 20.2965 -190.12 78.1176 
14926 2 25.8313 3.99121 9.61155 28.8665 146.452 90.5836 
14857 5 27.172 0.513951 10.0212 -9.52577 -11.745 -21.2807 
14931 5 27.2703 4.30837 10.1061 -28.3641 -11.4916 -18.0874 
14832 1 28.9014 2.41808 10.4207 15.0041 12.3078 54.741 
14930 5 24.8007 4.37565 10.6576 12.6698 -4.76422 -13.0028 
14934 5 24.7275 0.511689 10.6576 4.6543 -3.57744 -0.982681 
17384 1 22.8636 -1.16741 10.5973 -1.18708 4.29408 -0.650964 
14848 1 28.7231 -1.43222 10.2624 14.7304 18.6022 3.05238 
14898 6 29.1786 2.45721 7.88738 -13.6286 -15.2182 6.35702 
15247 9 26.3681 4.66526 7.72718 -1.61545 -1.097 -15.3182 
14826 6 28.1456 -1.3901 7.71182 1.4107 -3.42247 26.9386 
14861 7 27.5228 -0.59177 7.7367 4.98245 5.85322 -2.3012 
14862 7 28.7608 -1.17174 6.9734 0.15489 0.0378185 -0.0706526 
17565 7 23.8543 5.62398 7.62904 12.5061 3.70873 -1.62676 
17491 7 23.3409 -0.830267 7.25909 0.0972426 0.0711888 -0.459482 
12347 6 29.4782 5.3719 8.00631 -15.1948 -7.12243 4.18477 
14939 7 29.2544 3.33895 7.63004 0.444294 -0.930381 -1.22233 
17492 7 24.1978 -1.77871 8.08715 8.18026 2.44567 -6.23081 
17450 6 23.2929 -1.42611 8.02021 -21.6145 -6.94776 18.9544 
25291 7 5.22591 6.53661 7.32751 1.16723 1.63064 -3.17772 
25290 7 3.82687 6.55555 6.86919 -0.708341 1.63401 -4.43094 
25253 6 4.33607 6.71227 7.63615 -9.52384 -11.4808 2.18256 
25517 7 1.84279 7.29014 5.50902 -0.0268307 -0.0601612 -0.553157 
25313 6 1.21101 6.45671 5.78137 6.09776 -5.05047 30.266 
25362 7 1.19888 10.608 6.31952 -0.015857 -0.00813755 -0.0265682 
25275 1 4.36027 6.50413 10.1833 3.721 12.8797 -1.32556 
25278 8 0.639374 6.49188 7.63496 52.6812 31.4949 9.01294 
22958 9 3.89074 10.3239 7.2783 -3.4836 1.50419 0.219289 
22732 3 4.70032 10.3548 7.96195 2.48583 -12.608 13.8694 
25359 5 0.701437 8.49354 11.0939 -9.75327 -10.2006 -16.5291 
25356 5 3.08021 12.146 10.2169 9.81389 0.0122138 -13.3204 
25355 5 0.535314 12.2845 10.6518 -2.4552 -5.4672 -8.01643 
25354 4 1.48185 10.2856 9.54639 -13.578 13.9993 -27.4802 
25353 3 1.39194 12.6945 8.41831 -12.8567 -8.24574 3.66856 
25351 2 1.63225 11.8296 9.72046 39.7358 48.553 68.6556 
25286 5 2.93236 8.28049 10.0288 -5.50632 -15.9068 -19.1315 
25285 4 0.892127 7.85648 8.74192 -20.6154 -18.4035 -4.69793 
25279 2 1.49492 8.71367 9.83417 15.6679 98.1565 78.3415 
25259 1 4.86194 10.2149 10.3927 8.26037 9.16686 60.6864 
25327 6 1.60703 9.7444 6.34125 2.33972 1.32816 -0.69751 
25363 7 1.38635 9.50649 7.2315 0.485775 2.75612 1.35954 
22807 5 6.5607 12.2849 10.8694 -15.5604 -14.4218 -18.3984 
22730 5 6.65234 8.34528 10.5398 -4.58926 -14.7085 -13.3676 
22726 8 6.48614 10.4372 7.49213 -1.67323 17.805 -26.418 
22761 6 7.05704 10.8316 5.66761 1.76606 2.51448 6.83989 
22733 4 6.9844 11.7221 8.61372 -10.8696 -12.6117 -2.58619 
2035 7 -0.38188 13.3097 8.01899 5.34642 0.368352 -3.38302 
22728 4 7.23016 9.05362 8.29312 -12.9007 -20.2683 -5.8362 
22953 7 7.91026 10.1976 5.3838 -0.0666331 0.099843 -0.652167 
22965 7 7.33207 11.8331 5.45166 -0.0485528 0.141439 -0.277138 
22741 7 11.5 7.01103 7.05421 2.59702 -0.0368211 -1.57184 
22700 6 10.8104 6.36788 7.23855 -15.9892 -2.02137 18.411 
22636 1 10.9188 6.69179 9.82281 3.30478 8.70924 11.9324 
22729 4 7.48133 6.61374 9.11192 -11.2677 -8.3494 -27.7734 
22668 7 10.5831 8.59932 7.42923 1.89096 4.35275 -3.20265 
22725 2 7.70374 8.13304 9.39568 27.0315 31.5793 97.3431 
22727 2 7.53968 12.6129 9.75953 16.4172 132.689 81.4886 
22630 6 10.7174 9.56513 7.55044 -8.15695 0.722608 5.37103 
22667 7 11.6785 9.56 7.58776 1.2645 0.731167 -1.35664 
20110 3 13.3722 8.00482 7.87861 -10.8955 -1.07563 -3.23955 
20176 4 13.3404 12.979 8.33811 -6.54775 -6.95753 -3.99727 
20177 4 13.5478 10.5013 8.95979 -6.1587 -0.235814 -16.0567 
20173 2 13.7057 11.9908 9.40771 33.2192 -5.73554 76.8316 
20105 2 13.7244 8.93675 9.12343 -2.16019 6.07489 83.6995 
20178 5 12.5598 12.2564 10.4158 -7.64571 -12.3869 -22.8469 
20183 5 12.8988 8.51128 10.3587 -3.82537 -10.9666 -6.70136 
22734 5 8.97942 12.4092 10.1072 -12.3077 -12.4971 -17.6278 
22723 1 10.5486 10.4168 9.97488 -3.06884 4.02281 10.0464 
22731 5 9.11607 8.33188 9.85191 -15.4942 -24.2514 -21.8839 
20354 9 13.8366 7.1662 8.02076 -1.15003 -12.3259 -25.7279 
17489 7 15.3685 7.53149 7.27379 -6.21572 -2.27636 -3.84391 
17490 7 16.4114 7.08597 6.51817 -0.22545 0.0333316 -0.313067 
17451 6 15.9423 6.78743 7.29642 -18.6761 -17.168 17.8388 
17555 4 19.5148 6.40419 9.24816 -10.6732 2.42148 -18.8666 
20102 1 16.4765 6.46221 9.86905 10.8287 0.352898 19.817 
20179 5 15.0791 12.3713 9.86379 2.69888 3.83976 -11.7539 
20111 5 15.0953 8.51182 9.52882 -26.5586 -13.7897 -15.1543 
17802 9 19.4832 11.878 7.51898 -0.109639 -0.10012 0.170541 
17554 3 19.6317 8.68088 7.9737 -1.86508 -5.29884 6.09492 
17801 9 19.3812 9.57046 8.10065 0.626172 12.1562 6.45701 
17558 3 19.3121 11.5602 8.35726 -4.12884 -1.97474 -1.28997 
17552 2 19.7279 7.97853 9.40881 24.6122 57.9323 61.8621 
17553 2 19.7446 12.5897 9.5152 41.651 42.6466 68.9683 
17559 5 21.2085 12.1329 9.83297 6.93785 -0.441304 -11.0801 
17557 5 21.1128 8.33065 9.93016 0.866627 -11.6255 -15.8608 
17556 5 18.49 8.44005 10.194 12.6834 -3.78044 -7.65831 
17631 5 18.754 12.2185 10.6826 1.88285 -5.4272 -0.342129 
20084 1 16.8199 10.2664 10.3615 -12.2195 -5.31521 -0.196329 
17566 7 22.7737 6.49197 7.09029 0.0935093 0.0177986 0.0505802 
17525 6 23.2369 6.30614 7.97014 -29.807 -5.83027 17.2676 
15249 9 26.4199 12.3989 7.50271 0.8431 0.682695 0.245923 
14924 1 28.8784 6.30371 10.2599 24.944 19.8395 1.64393 
17459 1 22.8153 6.36449 10.4136 -84.1424 -68.2246 21.914 
17550 1 22.6813 10.1773 10.109 18.8766 17.5224 8.58805 
15248 9 25.0074 7.30471 8.25379 6.71134 8.83987 8.80682 
15002 3 25.5553 12.1132 7.86039 -4.79638 -8.75416 8.87675 
14932 3 25.8534 7.69566 8.37038 -4.64097 -4.16146 1.23749 
15003 4 25.6929 10.0578 9.40228 -8.97587 -5.76741 -23.589 
15000 2 25.8234 11.5586 9.33827 29.3028 102.65 73.7187 
14927 2 25.9265 8.52626 9.67582 39.509 66.3241 74.1833 
15005 5 27.2586 12.0307 9.65026 -1.59867 -12.7559 -17.3284 
14933 5 27.3368 8.19806 10.2714 9.42977 -13.9264 -17.3996 
15004 5 24.794 12.1885 10.2281 1.08782 3.16563 -12.2082 
14907 1 29.0423 10.186 10.3202 23.8549 18.805 22.3424 
15008 5 24.7476 8.17989 10.6591 15.9737 0.0360095 -1.51018 
14899 6 29.4402 9.94521 7.67407 -3.19813 0.0584899 5.40046 
17637 7 24.0129 13.1402 7.48134 1.60595 0.645564 -0.194967 
25427 5 0.471403 16.2254 10.9577 6.34052 -3.5787 -4.8464 
25424 5 3.05777 19.7432 10.2643 -15.1299 -6.2538 -9.83418 
25423 5 0.62854 19.9386 10.7649 4.16085 -4.31353 -9.86802 
25422 4 1.53223 17.8586 9.5283 -9.74507 7.15866 -14.5487 
25421 3 1.35286 20.1653 8.46116 -3.21708 -2.54973 -0.0515621 
25419 2 1.68921 19.4163 9.80763 -40.899 139.219 65.9687 
25358 5 3.0433 15.9649 10.3935 5.97292 -1.14214 -11.7674 
25352 2 1.62447 16.359 9.9389 56.8952 2.00066 38.1157 
25333 1 4.76049 17.9652 10.8964 -6.49373 13.2163 -43.1678 
25357 3 1.27516 15.4524 8.77037 -12.0423 -17.1172 19.3084 
25460 9 1.6173 15.8283 7.87293 0.0949738 0.362921 4.22419 
25349 1 4.58657 14.1062 10.6957 7.35401 16.4262 -1.24119 
22803 5 6.49129 16.0975 10.8756 1.66686 -0.473713 0.354893 
22875 5 6.46084 20.071 11.1158 20.4839 8.07585 11.9458 
25459 9 1.48999 13.6574 8.56205 -1.58069 4.72709 -4.16454 
22801 3 7.03055 16.5942 8.55987 -2.22725 -6.94428 3.99511 
2179 7 -0.387305 20.8468 8.22815 14.3791 2.1591 -6.42454 
22805 3 7.32975 19.3599 8.91011 -8.5185 -8.5735 25.8864 
22908 9 7.54595 19.9046 8.12021 0.010432 0.258139 6.54914 
22774 6 7.84223 14.1301 6.46407 2.02981 1.3125 2.01299 
22907 9 7.21638 17.5067 8.66763 -0.0714225 20.2624 1.82043 
22800 2 7.69826 20.1918 10.1825 71.0989 57.5498 36.0808 
22810 7 9.52718 17.6319 7.67339 -2.04568 0.942481 -2.02837 
22775 6 10.3724 17.5576 8.1234 -17.8878 -8.9667 6.97749 
22811 7 11.0269 17.744 7.42304 6.05674 1.0388 -1.30069 
20249 3 13.6146 20.1923 8.5115 -17.3874 -15.9816 20.058 
22799 2 7.50164 15.6895 9.76752 0.933645 20.9852 71.8074 
20181 4 13.1648 15.598 8.7498 -9.61364 -32.0336 -11.754 
20250 4 13.59 17.8559 9.69511 -13.738 6.72163 -27.9576 
20247 2 13.6446 19.4223 9.89672 2.19313 29.1135 69.1681 
20175 2 13.7411 16.3389 9.95052 44.4005 115.984 89.4289 
20255 5 12.7826 16.0392 11.1348 -2.73581 -11.399 -16.5711 
20251 5 12.5994 19.887 10.8751 -0.590255 -0.0908791 10.4942 
22797 1 10.5866 17.8329 10.6706 3.31244 -1.52389 12.3854 
22804 5 8.85928 16.0465 10.2629 -4.37109 -10.9744 -14.2743 
22806 5 9.15709 19.6726 10.6518 26.314 -12.4084 -11.0945 
20209 6 12.874 15.0323 5.7533 0.480676 -0.355868 1.51776 
20174 8 12.7095 14.4625 7.54514 27.2034 10.996 -54.6399 
22802 4 7.35344 14.1712 9.46207 -20.8119 9.26643 -29.4808 
22707 1 10.7485 14.2517 10.2767 12.659 10.6874 8.53153 
20180 3 10.8086 14.0423 7.95232 18.2849 -8.84971 5.18746 
20260 7 13.0324 18.8856 6.99744 0.128705 1.33046 1.24173 
20261 7 12.9162 17.3666 7.33817 -0.565354 10.6047 5.43455 
20401 7 13.4229 15.9899 5.62814 -0.162161 0.311368 -1.28279 
20406 9 10.0189 14.4108 7.4707 -1.28798 2.82939 -2.51949 
20413 7 11.9327 15.1884 5.26927 -0.0685523 -0.0248852 -0.439019 
20222 6 12.7014 18.0477 6.67459 -0.741641 0.714273 -0.95759 
22813 7 7.7456 15.0607 6.62462 -0.0713702 -0.0511939 0.0543258 
22812 7 7.44152 13.8113 7.30537 0.730647 1.40147 6.39134 
17861 7 18.0327 18.1656 5.18632 -0.0415341 -0.0258536 -0.1952 
17849 7 19.1146 19.332 5.5722 -0.0526 0.152297 -0.564051 
17657 6 18.7692 18.3451 5.88217 -4.86359 -2.64206 15.1386 
20252 5 14.9691 19.7344 10.5394 -8.65997 -13.6488 -18.1925 
20182 5 15.2166 16.0409 10.213 -3.86916 -20.4488 -14.2563 
17622 8 18.5634 18.0799 7.75046 32.103 27.7065 -14.5718 
17854 9 15.9449 18.6012 8.0719 -0.321243 1.99571 -3.3376 
17628 3 16.7563 18.0742 8.25458 4.13282 -9.86957 9.69783 
17624 4 19.3217 16.6826 8.46567 -7.76005 -11.4979 -3.62418 
17629 4 18.9827 19.4332 8.85904 -13.5611 -12.1656 1.47216 
17621 2 19.6951 15.6526 9.54627 46.3818 95.7592 83.9962 
17623 2 19.5501 20.2671 10.0023 52.7563 24.2638 75.7488 
17630 5 21.0316 19.7719 10.2793 12.6001 -2.3377 -15.5057 
17627 5 21.1919 15.89 9.96206 1.10778 -17.9341 -17.2194 
20155 1 16.8424 17.9752 10.6946 2.38777 10.8152 -13.1703 
17626 5 18.7672 15.8963 10.7355 -8.73574 -9.02663 -12.122 
20171 1 16.7158 14.1373 10.3208 3.70384 5.22206 -42.1922 
17625 4 19.606 14.0957 9.12525 -6.0415 7.86964 -12.3089 
17564 7 21.4906 17.2833 7.58657 -0.583144 1.53682 -1.29555 
17703 5 18.6795 20.0258 11.2014 -15.0374 -11.9359 -21.0458 
17709 7 19.905 20.6273 7.34679 2.90252 4.9354 4.33096 
20259 7 15.568 20.8847 8.4035 12.1675 3.51605 -2.50939 
17526 6 22.4132 17.452 7.70597 -7.55311 -6.56072 18.2937 
17563 7 22.8092 16.6576 7.3521 0.249311 0.337525 -1.97821 
17619 1 22.5682 17.9268 10.3236 11.4406 12.6736 -12.5689 
15250 9 25.4259 16.554 7.3496 3.2079 4.16508 70.3334 
15006 3 25.6058 15.7572 7.92658 -17.1653 -12.158 55.7057 
15072 4 25.3173 20.4252 8.40544 -12.9536 -7.83992 -2.86745 
15073 4 25.9599 17.9542 9.15621 -15.7617 6.16351 -35.1204 
15069 2 25.8295 19.4844 9.52152 46.658 195.986 67.5553 
15075 5 27.2671 19.8707 9.91392 5.13177 -4.15958 -14.4299 
15001 2 25.8934 16.4473 9.39988 31.5363 21.7852 33.3891 
15007 5 27.2951 15.9854 9.7832 -0.437007 -10.5189 -15.9669 
14980 1 29.1857 17.8209 10.1444 -13.1242 -20.8319 15.1229 
15074 5 24.8028 19.6389 10.6176 -5.93377 -5.14088 -19.1578 
15079 5 24.8396 16.1163 10.4638 8.67629 -3.343 0.657458 
12533 7 25.4571 18.3754 7.23091 -0.411238 4.42048 5.90856 
17532 1 22.9834 14.1035 10.1761 9.51936 12.1104 9.37832 
14998 1 28.6373 13.9834 10.0874 19.6729 24.6567 13.5635 
12492 6 25.1645 17.9196 6.43544 -1.26558 -1.71029 -0.926612 
12532 7 24.2391 17.8074 6.45162 -0.0719185 0.0102184 -0.228773 
17636 7 24.2982 14.6547 7.77674 3.08544 -4.73913 -4.64643 
17597 6 27.3956 19.7327 6.47718 -16.3403 -1.05001 0.914281 
17635 7 27.0344 19.9354 7.31032 6.36439 1.20971 -2.27142 
17596 6 23.5563 13.9987 7.66239 -11.343 -1.53094 4.64547 
14974 6 28.7308 14.0837 7.53935 -5.65371 -10.9749 7.57621 
17634 7 26.9707 18.9124 6.11254 0.287595 0.569 -0.150667 
15084 7 28.6931 18.2675 6.90767 0.592151 2.7685 -1.51472 
15012 7 28.1952 14.867 7.30744 1.7708 1.80007 -1.78675 
15044 6 29.2899 17.8272 7.55162 -18.3642 -15.2726 14.4764 
15011 7 29.5706 14.1102 6.99075 5.04223 0.881256 -0.297959 
25461 9 1.63963 21.1191 8.56579 -0.446524 8.99082 -6.09476 
25417 1 4.459 21.7465 10.9217 -17.0064 -20.0581 -19.5839 
24923 5 0.754769 27.5218 10.9484 6.33274 1.90095 -1.80994 
25425 3 1.35108 22.98 8.77836 -10.5638 -8.36239 18.51 
24927 5 0.559259 23.61 11.1153 15.9342 -1.50077 8.18677 
25426 5 3.10363 23.8017 10.4009 3.58349 -9.44908 -9.2499 
25420 2 1.64879 23.9265 10.0018 35.0971 97.8381 57.7988 
25401 1 4.97038 25.5329 10.7242 12.3807 4.81311 6.38467 
24924 5 3.18735 27.1766 10.4054 -6.06938 -6.01463 -13.7946 
24922 4 1.38256 25.4386 9.75254 -16.2954 10.5001 -16.7418 
24919 2 1.7823 26.9563 9.95451 0.202838 144.058 59.5652 
24921 3 1.55556 27.7248 8.56562 -3.24567 -0.893007 8.33187 
25462 9 1.60156 23.3783 7.96981 -0.0554061 0.118501 1.81359 
22871 5 6.64021 23.6959 10.9095 5.05515 -4.77411 -4.46324 
25451 9 2.36751 27.8615 8.13061 0.0532013 0.479131 1.54994 
22375 5 6.78156 27.3777 11.2762 2.15055 -3.78357 -4.07401 
20355 9 13.7553 21.1037 8.67011 -2.68498 21.271 -0.998255 
22873 3 7.36095 26.8242 8.94079 -1.66982 -2.80166 22.7353 
22910 9 7.83453 27.1872 8.16884 0.0182329 0.302151 5.20169 
22881 7 10.5673 22.2037 7.78641 0.173443 0.14786 -0.59751 
22880 7 12.0072 21.7432 8.22322 12.0731 4.40601 -4.60062 
22869 3 7.56442 24.0265 8.5961 -0.8475 -1.28925 0.74081 
22842 6 11.0399 21.8185 8.50693 -11.5888 -8.49733 2.68195 
22909 9 7.42422 24.9915 8.72358 -0.31554 9.47645 -0.659675 
22870 4 7.80675 21.6814 9.76784 -9.67271 13.1933 -14.3119 
22781 1 10.8959 21.6885 11.0129 -25.6568 -19.7965 27.7306 
22868 2 7.76545 27.7412 10.1816 37.1397 97.3785 39.5247 
22867 2 7.78902 23.2324 9.92461 53.1458 189.973 71.5503 
22381 7 12.0152 26.341 8.4485 11.0132 9.21791 -1.73291 
20253 3 13.4682 23.4016 8.82795 -29.0874 -27.4071 7.64315 
22380 7 10.8121 26.2531 7.54966 0.0738337 0.106358 0.0971333 
22342 6 11.2091 25.8188 8.3988 -19.2977 -2.76624 30.5269 
20317 3 13.3219 27.8427 9.08682 -10.2206 -13.0575 -7.97602 
20248 2 13.7696 24.0294 10.2263 7.38934 3.69561 110.214 
20318 4 13.624 25.5447 10.0164 -28.972 -19.2171 -43.5285 
20315 2 13.7788 27.0543 10.3348 50.9845 -14.8417 82.1348 
22865 1 10.6865 25.3992 10.9226 12.9152 11.4951 30.06 
22872 5 9.17462 23.6871 10.462 5.44292 -15.5191 -13.7407 
22874 5 9.24947 27.6706 10.5948 6.88513 -9.54552 -10.157 
20356 9 12.5954 23.6209 8.49206 10.2682 3.84176 -10.0125 
25431 7 14.1509 26.52 7.83751 1.06624 4.7428 6.67791 
20323 5 12.8525 23.6161 11.429 2.09326 -7.83756 1.06016 
25430 7 14.093 24.9955 7.86813 1.66753 4.7409 10.3602 
25395 6 14.4016 25.7329 7.27378 -0.138907 0.091495 -0.156797 
20258 7 15.2294 22.3163 8.12146 1.34089 0.112011 -1.49001 
20223 6 16.0015 21.7513 8.2238 -7.2944 -1.18229 9.34032 
20245 1 16.5342 21.695 10.8038 16.4787 20.4624 33.4998 
17698 4 19.4354 21.7483 9.56107 -11.7629 -3.55941 -28.5712 
20320 5 15.2214 27.4242 10.856 4.59465 -10.9793 -15.0573 
20254 5 15.1801 23.5949 10.561 -15.8614 -11.4144 -20.7425 
20329 7 17.2434 26.6466 8.28058 4.00383 3.20003 -3.63318 
20328 7 16.0419 25.8023 7.61998 1.70212 -0.0177109 -0.0908594 
17803 9 18.6355 24.4714 8.19816 9.10996 9.19561 -0.698864 
20290 6 16.6573 25.8385 8.42977 -27.105 -4.69172 8.38355 
17697 3 19.4666 23.9299 8.24968 -7.21937 -15.3819 7.82271 
17701 3 18.7572 27.5768 9.07536 -11.369 -29.4595 -3.5515 
17695 2 19.6311 23.298 9.64847 1.23261 5.38084 77.6561 
17696 2 19.6976 27.9701 10.2409 34.1863 99.6415 91.1616 
17700 5 20.9899 23.6351 10.1729 -17.1981 -7.71462 -18.7469 
17702 5 21.0953 27.3466 10.1236 8.05444 -13.2936 -20.6542 
17699 5 18.7076 23.7838 10.7613 -3.24087 -4.43462 -2.62872 
20229 1 17.0048 25.6018 10.9426 18.848 15.0817 -3.90176 
17708 7 20.0702 22.1005 7.0657 -0.245571 1.39373 0.780838 
17670 6 20.1319 21.2549 6.64674 -0.745737 0.855398 -1.26734 
17707 7 20.7868 25.2363 7.6314 4.67537 4.89925 -0.065985 
17706 7 21.1787 26.5559 8.43819 0.135999 6.47075 6.90361 
17671 6 21.5933 25.7538 7.94146 -0.411631 -4.672 5.04673 
17804 9 18.1596 28.2261 8.79174 4.30639 -0.368395 -3.00055 
15302 9 22.12 22.0167 7.2663 -10.7728 2.27562 -0.684945 
15082 7 28.9341 21.4367 6.98265 -0.129887 1.91301 -3.07398 
15309 7 26.1711 21.1856 5.56242 -0.0521395 0.353501 -0.580406 
15297 7 25.7773 22.9358 5.36905 0.0243493 0.421802 0.0405648 
15076 3 22.8653 21.7306 7.945 5.18868 -10.2299 6.89864 
15105 6 25.4296 21.9972 5.7434 2.53334 2.80862 8.71185 
15067 1 28.5009 21.8246 10.3102 6.79328 13.7559 19.6158 
17603 1 22.8719 21.8054 10.3091 42.0623 31.2669 59.682 
15070 8 24.6898 21.8654 7.53391 8.57474 21.8747 -6.12616 
15157 7 24.761 24.7113 6.5409 0.0783632 1.42321 -2.29042 
17693 1 22.4585 25.6458 10.3024 35.1435 46.6896 69.1151 
15118 6 24.3516 25.0692 5.80024 0.216916 -0.0163965 -0.0774286 
15156 7 23.4675 25.4068 6.08223 0.347667 0.0656617 -0.0178564 
12750 9 28.7793 27.0604 8.02173 -18.1783 -1.31558 -3.49754 
15145 3 25.8709 28.1424 8.32624 -24.96 -10.1552 24.2634 
15077 4 25.2347 23.1977 8.50469 -14.7873 -21.7153 -11.7206 
15146 4 25.5466 25.6818 9.29943 -7.79323 17.9535 -15.8815 
15143 2 25.8227 27.2278 9.63665 34.0176 57.5966 43.6434 
15071 2 25.6377 24.1622 9.58877 42.6265 136.895 70.7316 
15078 5 27.0823 23.775 9.8664 3.56348 -1.38223 -12.2557 
15148 5 27.2019 27.5255 10.2775 11.2585 -13.2551 -16.2754 
15051 1 28.9278 25.6837 10.4438 -0.2135 13.0602 26.8879 
15147 5 24.7278 27.7419 10.5663 3.6052 -1.96557 -8.47814 
12524 3 29.1596 26.0649 8.01414 -11.2147 -1.27024 9.0227 
15045 6 29.2043 21.7754 7.82857 -18.4413 -10.9743 5.45467 
15251 9 25.5134 27.6474 7.63837 -0.101314 -0.294054 15.4976 
15151 5 24.6677 23.8201 10.7274 -4.79988 -8.23154 -16.0375 
25272 7 0.670058 4.56203 16.1075 -7.70822 0.282978 -2.4235 
25198 5 4.5419 2.55475 12.6561 -17.0051 -9.28212 -10.2196 
25195 5 4.3158 -1.09258 12.7632 -1.73319 -3.66289 4.42281 
25511 9 0.0671206 1.27759 16.1248 -29.2944 3.8423 -1.29381 
22635 1 6.05896 0.692999 12.8525 -18.5145 -2.82227 -13.3251 
25268 5 2.06322 2.89899 12.9931 -0.114909 -10.9244 -22.2309 
25258 1 0.250924 4.4912 12.7638 4.7363 3.49411 5.33253 
25207 1 0.476342 0.786529 13.0733 16.5011 42.979 27.0484 
25191 2 3.47612 3.03985 13.5769 22.3651 -48.2346 58.0028 
25263 4 3.57926 4.53329 13.9916 -30.782 -19.5047 -41.9674 
25197 4 3.26023 2.0922 14.7531 -16.7721 -27.7497 -10.692 
25192 4 3.04502 -0.482259 14.848 -11.4071 -25.3723 -13.0475 
25196 3 0.754553 0.898851 15.4198 0.233055 -17.3067 13.3707 
25190 8 2.58658 0.854877 15.8637 -68.1236 -4.05526 -40.8663 
25240 6 3.64071 0.530165 17.4895 -6.98375 -0.810101 3.2759 
25519 7 3.55945 -0.331765 18.0772 2.36835 0.512974 -2.12125 
25507 7 3.59564 1.32408 18.2475 3.94891 8.70154 -0.366123 
22649 6 3.71662 4.26547 16.7183 -8.16664 20.0219 -22.9869 
25308 6 0.0972661 4.3471 15.3583 -32.6256 -13.3597 -0.332331 
25270 6 1.27001 4.9508 17.7425 -12.2602 -8.21785 -8.38554 
25310 7 1.53906 5.18708 18.6703 0.15824 15.8757 8.28386 
22655 1 6.37544 4.67075 12.8239 -12.1929 5.42678 -10.654 
25194 5 1.89442 -1.62182 13.1754 0.683432 -13.7249 -19.061 
25189 2 3.31878 -1.5892 13.8009 45.1 75.7196 91.0576 
25309 7 2.18043 4.68746 17.3183 29.4258 1.08165 -2.47746 
22683 6 6.12321 0.783114 15.3125 -6.38009 -8.64277 -3.95352 
22650 7 6.80564 0.792762 16.0912 5.26555 0.998006 8.46946 
22684 7 3.66856 3.53602 16.0656 -0.913523 2.22066 7.01574 
22644 3 6.78083 4.52942 15.0185 27.0534 -17.4229 -0.755623 
22651 7 5.2485 0.506931 15.7802 -10.8568 3.05716 0.556041 
22759 7 4.77989 4.39986 18.4442 5.64517 0.477196 4.35301 
22959 9 6.03132 4.78095 15.6066 0.822178 3.99009 -3.90332 
22685 7 3.69287 5.0978 16.1004 -2.00303 6.97613 5.28954 
17474 7 17.1384 -1.52601 15.46 25.6772 7.16375 -1.78464 
25201 6 0.00961117 0.775102 19.0483 -18.426 -7.28694 18.6921 
22687 7 6.5602 0.78024 18.8572 14.2605 -1.19273 5.0964 
25236 7 0.392903 -0.030166 18.6216 1.92965 3.22687 -2.66511 
15174 7 18.4463 28.4589 16.4688 5.92758 5.34156 -7.14806 
22760 7 5.99259 3.63423 19.031 3.94417 4.65168 -5.78428 
15172 7 22.28 26.7656 19.0799 16.3463 4.04517 -5.6131 
15265 9 26.7714 28.6552 18.7646 -1.39891 7.94946 -11.2554 
20099 7 10.7709 4.32736 18.7334 5.0028 2.37525 -1.68487 
20023 6 7.89256 0.746402 17.3922 -10.1249 12.7139 -17.1549 
20061 7 8.50242 1.28542 17.9446 1.36282 0.97783 7.66754 
20022 6 13.2131 2.3208 17.3185 0.194958 -2.1696 -3.5726 
20062 7 8.41846 -0.0778016 17.2421 6.39003 7.27938 -2.42961 
20101 7 10.9314 -0.390019 17.7009 9.79234 5.26004 -2.23281 
22931 9 9.90621 -1.03936 15.6886 -0.908695 3.6824 4.86952 
22643 5 10.3472 2.57234 12.1955 -2.35323 -4.55475 -8.59461 
20083 1 12.0539 4.57824 12.2941 22.9585 13.7179 24.6526 
22642 5 7.78438 2.32799 12.6693 -1.42849 -7.34067 -19.9075 
22572 5 10.3915 -1.19034 12.4814 -0.325958 -8.7678 -13.4579 
22647 5 8.01803 -1.15376 13.3887 5.21494 -14.7492 -17.4448 
20029 1 12.4935 0.818447 12.5759 2.08555 10.6861 -9.62309 
20095 5 13.8672 2.81253 13.0198 -7.08816 -11.5866 -14.4585 
22637 2 9.23854 2.21284 13.1776 46.6557 20.515 67.8889 
22565 2 9.47766 -0.798971 13.6553 34.7892 57.9356 22.118 
22641 4 9.6135 0.790931 13.697 -19.7495 -0.374877 -20.1806 
22640 4 9.10375 3.21619 14.2882 -10.6148 -14.5786 -5.31608 
20060 6 12.4949 0.765372 15.1661 -26.4789 -13.5455 5.17266 
20025 7 13.3252 0.396246 15.3514 -5.66112 0.959993 -7.84479 
22638 8 8.66428 4.46211 15.4623 56.7352 49.7107 21.9502 
20024 7 12.3759 1.34649 15.9516 -1.42454 2.08548 0.785005 
22688 6 9.2628 4.25721 17.2741 -5.27488 -7.96424 27.0148 
20130 6 10.193 -1.03106 17.5796 -9.41657 -12.6863 2.24468 
20016 5 13.8732 -1.10957 13.0216 3.45916 -15.8641 -19.5088 
20100 7 9.83337 -1.17136 18.4941 5.69687 3.32425 24.0464 
22967 7 8.84244 3.40422 17.812 -0.171187 0.469774 -1.80791 
22571 3 9.96761 -1.62082 14.8921 -17.5777 -14.5484 -2.41418 
20135 7 12.7859 0.891207 18.5007 0.999847 9.81499 2.57371 
22955 7 8.917 5.07483 17.8913 -0.495657 -3.03599 -18.9606 
20064 7 13.8499 2.72439 17.9335 4.38247 -1.08736 3.79144 
20063 7 13.8572 1.86072 16.7278 3.22681 2.02472 0.535938 
20096 6 12.2678 0.22339 18.9787 -25.9947 -18.1658 -7.33178 
20098 7 12.2177 3.97851 19.1416 -3.47784 2.27871 -3.71636 
17457 7 16.3927 -0.373878 19.0483 12.8394 7.346 -1.59466 
20379 9 16.2228 1.76003 15.1928 6.79678 9.81029 1.58199 
20378 9 15.4007 0.0444891 14.8487 0.660899 54.9559 29.1398 
20012 2 15.2359 -1.61828 13.5115 12.3716 -67.5669 80.598 
17469 5 19.9364 -1.30131 13.4326 1.39244 -11.2369 -11.7335 
20017 5 16.2815 -1.21496 12.5395 9.36076 -0.796219 -6.64543 
20020 5 16.2894 2.4578 12.6312 -4.87871 -5.10471 -10.1327 
17477 1 18.4308 4.50707 12.7514 23.9144 16.545 51.5322 
17458 1 18.218 0.637135 12.871 48.9973 37.8357 7.49781 
17464 5 19.9587 2.61017 13.0923 -3.69743 -12.7473 -18.6755 
20014 3 15.3481 -0.927596 14.9324 -16.3509 -11.0229 30.5138 
20013 2 15.2355 2.86552 13.6686 22.8579 -36.2573 54.6471 
20089 4 15.4847 4.41259 13.8828 -11.6344 4.45655 -17.1255 
17460 2 21.2934 2.30374 13.8302 69.3272 147.772 81.3893 
17386 2 21.2555 -0.760946 14.0881 55.0436 126.382 36.5156 
20019 3 15.2983 1.90893 14.8696 -10.2775 -7.75417 2.78443 
17466 6 18.1726 0.612713 15.402 -29.6785 -16.2472 1.35661 
17494 7 18.7953 -0.0901791 15.5449 1.22654 0.954803 -4.78398 
17493 7 18.491 1.37124 15.9074 1.12897 7.83189 -2.33203 
17471 6 18.787 3.11626 16.9958 -23.0031 -31.5737 -23.2419 
17510 7 19.6145 2.92583 16.4966 3.99837 0.656107 -14.7385 
17509 7 19.1105 3.06865 17.8511 2.17255 2.49421 -15.9184 
17463 4 21.2166 0.803669 14.1626 -12.0166 11.1763 -31.1727 
17472 7 19.39 5.41309 15.0932 4.90566 -5.47765 -6.30883 
17508 6 18.4641 5.10016 15.2274 -13.1963 -16.9446 -6.37737 
17473 7 18.6461 4.44267 15.8616 0.181775 -12.8841 -18.1878 
14959 7 20.8538 1.05128 17.8077 8.08064 6.71474 8.51317 
14960 7 21.4588 1.48858 16.4217 -3.157 6.19704 -3.64193 
17391 3 21.5184 -1.34558 15.4834 -25.5141 -35.5795 23.2968 
17825 9 21.6114 -0.58466 16.1316 -3.64513 18.1508 74.9659 
17462 3 21.0694 3.02088 15.1803 -19.6162 -22.7234 3.91444 
14918 6 21.6294 0.847222 17.1445 12.9897 -15.4591 5.38401 
17583 7 17.5531 4.35204 18.162 5.83755 3.30995 5.0443 
17826 9 21.0981 4.02322 14.9957 -0.548815 17.4103 0.448652 
17503 6 16.9529 0.356343 19.3281 -21.6987 -4.35654 0.688866 
17544 6 16.9786 4.74112 18.9155 -8.13261 8.43878 22.1107 
17582 7 17.3311 5.69713 18.9171 5.42376 10.0088 -3.14166 
25465 9 2.09622 28.7499 18.8413 -1.12018 10.4552 6.03998 
20367 9 14.9031 6.09035 19.108 0.551523 1.75316 -61.746 
17813 9 21.5074 2.88166 18.8805 10.6235 8.74244 -4.30339 
17499 3 20.6921 2.33036 19.0532 -20.405 -24.8946 -7.01283 
12370 7 28.925 3.85987 16.211 14.5233 9.52128 -0.33275 
12752 9 29.2904 3.85642 18.4872 10.927 3.42725 -0.0887667 
17392 5 22.3788 -1.113 13.0479 13.8095 0.304713 9.14775 
14833 2 27.436 -1.7351 13.7653 17.6754 -84.7976 76.7474 