ITEM: TIMESTEP
590000
ITEM: NUMBER OF ATOMS
25517
ITEM: BOX BOUNDS pp pp ff
-3.8959205201285124e-01 6.0088135642019459e+01
-1.9452389155355383e+00 5.9115524189537531e+01
-1.2206056431032383e+01 1.1390111600702880e+02
ITEM: ATOMS id type x y z v_stressx v_stressy v_stressz 
25292 7 5.89857 3.03966 7.5916 -2.4787 -8.50566 -6.23362 
25293 7 5.98077 1.53035 7.7064 -1.90759 -5.90505 -1.88883 
25252 6 5.35811 2.25094 7.51796 -6.3465 -3.24168 0.19026 
25287 5 0.61597 0.755495 10.7564 7.80449 -1.43762 4.07249 
25283 5 2.94291 4.2301 9.842 11.1892 6.52399 -13.1924 
25281 4 1.3887 2.44216 9.07367 -13.33 2.0513 -16.7699 
25280 4 1.07853 5.00258 8.46007 -12.7934 -8.55485 -6.63467 
25277 2 1.45655 3.94107 9.49571 50.8801 39.6735 80.0764 
25215 5 2.99957 0.588718 9.72621 -14.4933 -9.97484 -11.8389 
25209 2 1.59287 0.935181 9.44522 7.29562 -56.7549 73.1897 
25188 1 4.8243 2.58953 9.97468 5.22009 1.06689 14.521 
25214 3 0.796635 0.0137284 8.44439 -1.62057 -4.23847 2.4559 
25282 5 0.520916 4.37471 10.6565 -15.2326 -14.3742 -18.7766 
25458 9 1.40812 -0.435335 7.83607 0.0234311 2.07054 1.69731 
25206 1 4.52732 -1.17961 10.115 34.5518 37.9335 20.3685 
22660 5 6.52822 0.875659 10.2203 -1.32735 -5.60571 -15.8857 
22735 5 6.623 4.87348 10.5536 2.29144 -9.2997 -14.5842 
25505 7 1.83983 5.65447 5.50835 -0.0554536 -0.15962 -0.295708 
22662 3 7.17647 4.29529 8.22411 -11.9004 -23.1284 -18.5115 
22658 3 7.30314 0.346889 7.89736 -14.8812 -15.2224 -11.25 
22905 9 7.65252 -0.485879 7.46068 0.0167444 -0.415539 -4.49889 
22906 9 7.50322 4.57024 7.35908 -2.79199 4.29949 9.54653 
20115 7 11.1372 2.292 6.49758 0.445031 -0.00613245 -1.17074 
22656 2 7.7059 0.365729 9.40584 22.1683 74.0337 64.0661 
20116 7 12.1136 2.88755 7.40659 19.6971 6.67972 2.73454 
20078 6 11.1398 2.86581 7.23657 -15.9717 -11.6216 1.83955 
20106 3 13.741 4.72985 7.46261 -15.6224 -10.974 42.1089 
22657 2 7.60419 5.1024 9.41016 53.2566 -16.0336 21.9593 
20036 3 13.619 0.47741 7.57109 -16.5617 -19.5301 16.5039 
20107 4 13.6664 2.6833 8.8298 -17.7994 -13.9959 -33.8585 
20104 2 13.8784 4.18168 8.97251 31.0193 36.0923 93.7607 
20031 2 13.7132 1.1448 8.96008 62.2326 163.946 15.3223 
20108 5 12.6966 4.70757 9.81807 14.7552 11.9687 1.44451 
20112 5 12.4932 0.846951 9.91178 11.2057 -0.114582 6.94451 
22654 1 10.4859 2.78478 9.68506 11.4549 10.1057 12.665 
22661 5 9.03983 1.11007 9.56315 -7.58508 -6.49153 -16.7971 
22663 5 9.10858 4.7108 9.73761 4.35666 -12.7812 -15.7484 
22563 1 10.886 -1.13469 10.1589 -0.540368 -0.418438 -14.589 
22659 4 7.7627 -1.12896 9.68153 -9.55109 -34.9732 -35.5032 
22629 6 11.3751 -1.065 7.76545 -16.8041 5.06876 2.48714 
22669 7 11.9249 -0.207968 7.44815 1.31029 5.20837 -1.27451 
20352 9 13.8605 1.22514 6.87465 0.718115 12.5267 14.7506 
20189 7 14.2777 3.18994 6.51456 0.274232 13.5116 8.44173 
20353 9 14.543 5.23857 7.22704 7.72438 13.1952 16.8288 
20148 6 14.5671 2.45013 5.87332 0.144688 0.0574762 0.0999092 
22740 7 11.2703 5.5881 6.8279 3.28716 1.47625 -1.19954 
22738 7 8.76742 5.41578 5.90114 -0.680445 0.705449 -1.36298 
22701 6 7.85394 5.37142 5.69312 0.460767 -0.337137 7.86703 
22739 7 7.886 4.86164 4.87022 -0.0110549 0.0203827 0.00877672 
22670 7 11.9327 -1.89861 7.72342 1.05865 1.64845 -5.21011 
20188 7 15.4435 2.20345 6.22553 0.812236 -0.137608 0.0853869 
20037 5 15.0057 0.565552 9.66218 -0.972038 -6.91591 -13.0534 
20118 7 17.8719 2.63796 7.70159 5.65691 -0.346768 -2.90008 
20117 7 17.6995 1.17882 7.44002 3.01164 2.54135 -4.63177 
17799 9 19.455 -0.241526 7.33338 0.305067 6.59441 17.954 
20077 6 17.1284 2.01775 7.60787 -23.1538 2.45637 26.5077 
17484 3 19.536 4.02271 8.03155 -4.20829 -2.56526 -2.44323 
20109 5 15.1822 4.68195 9.53593 -5.70074 -7.31166 -17.4067 
17480 3 19.3808 0.510653 7.95906 -16.3979 -31.9288 10.8064 
17478 2 19.7385 0.13463 9.405 32.2364 34.4337 47.8396 
17479 2 19.7269 4.90401 9.32133 46.0873 113.123 61.1306 
17485 5 21.0972 4.45706 9.83859 4.84308 -15.8381 -16.7823 
17483 5 21.125 0.57616 9.92672 4.98037 -10.0297 -13.7092 
17482 5 18.7273 0.612358 10.4453 1.10819 -3.65839 -5.34862 
17560 5 18.5746 4.39351 10.2378 -1.09436 1.56398 -11.6956 
20011 1 16.7883 2.43064 10.1919 50.7073 45.8637 50.8182 
20028 1 16.5417 -1.33752 10.1131 23.6256 17.1043 9.3062 
17481 4 19.613 -1.37684 9.30614 -12.2502 -19.6603 -37.8955 
17800 9 20.2785 3.41394 7.96437 0.305419 -2.89381 -5.44406 
20002 6 16.2002 -1.21507 7.53432 -10.3897 -7.55126 13.3426 
20044 7 15.5857 -0.449442 7.68688 4.33266 8.58404 -2.7812 
20043 7 16.3516 -1.12082 6.60323 0.281626 0.199429 -0.837893 
17377 6 19.8786 -1.6773 6.3322 0.247468 -0.1385 -0.0137474 
17415 7 20.5742 -1.92657 6.98281 2.85197 2.4782 2.0544 
14864 7 23.6314 3.83266 7.75133 5.59291 -4.69649 -1.45983 
14825 6 23.2988 2.969 7.82153 -9.29635 -3.79527 1.39827 
14863 7 24.1611 2.53617 7.90018 3.88499 -1.33337 -0.567553 
17476 1 22.5994 2.5974 10.2549 -65.6711 -41.0294 48.9627 
14928 3 25.5679 4.59148 8.20809 -31.3167 -49.838 -46.5763 
15246 9 24.7065 0.00657495 8.04332 7.98456 10.8344 20.07 
14856 3 25.5405 0.383335 8.16649 -12.6526 -14.8696 10.7194 
14929 4 25.6618 2.47021 9.27814 -17.7741 -35.0259 -33.6964 
14851 2 25.7726 0.935136 9.6021 20.1301 -189.162 76.3999 
14926 2 25.8313 3.99121 9.61155 28.3574 144.149 88.2421 
14857 5 27.172 0.513951 10.0212 -9.89928 -12.1008 -21.19 
14931 5 27.2703 4.30837 10.1061 -28.4229 -11.1482 -17.9338 
14832 1 28.9014 2.41808 10.4207 15.1262 11.8456 58.9175 
14930 5 24.8007 4.37565 10.6576 12.6754 -3.93163 -12.7845 
14934 5 24.7275 0.511689 10.6576 4.60904 -4.09412 -1.6133 
17384 1 22.8636 -1.16741 10.5973 -0.835971 4.2522 2.9468 
14848 1 28.7231 -1.43222 10.2624 14.8029 18.659 1.71261 
14898 6 29.1786 2.45721 7.88738 -13.6 -15.3027 6.42603 
15247 9 26.3681 4.66526 7.72718 -1.61685 -1.0907 -15.3133 
14826 6 28.1456 -1.3901 7.71182 1.46521 -3.46778 27.4623 
14861 7 27.5228 -0.59177 7.7367 4.97599 5.85144 -2.43504 
14862 7 28.7608 -1.17174 6.9734 0.155436 0.0382648 -0.0703227 
17565 7 23.8543 5.62398 7.62904 12.5379 3.73835 -1.61188 
17491 7 23.3409 -0.830267 7.25909 0.0993773 0.0703413 -0.466647 
12347 6 29.4782 5.3719 8.00631 -15.2367 -7.23201 4.22065 
14939 7 29.2544 3.33895 7.63004 0.441936 -0.922294 -1.21986 
17492 7 24.1978 -1.77871 8.08715 8.20656 2.44498 -6.25894 
17450 6 23.2929 -1.42611 8.02021 -21.6518 -6.96491 19.144 
25291 7 5.22591 6.53661 7.32751 1.18522 1.65307 -3.23043 
25290 7 3.82687 6.55555 6.86919 -0.683869 1.67287 -4.44869 
25253 6 4.33607 6.71227 7.63615 -9.6359 -11.6255 2.23963 
25517 7 1.84279 7.29014 5.50902 -0.0257746 -0.0561938 -0.552929 
25313 6 1.21101 6.45671 5.78137 6.03728 -5.42952 30.2881 
25362 7 1.19888 10.608 6.31952 -0.0161637 -0.0174551 -0.0214083 
25275 1 4.36027 6.50413 10.1833 3.51753 12.8226 5.50262 
25278 8 0.639374 6.49188 7.63496 52.9675 32.2424 9.27116 
22958 9 3.89074 10.3239 7.2783 -3.46985 1.48018 0.242144 
22732 3 4.70032 10.3548 7.96195 2.33477 -12.5642 13.6283 
25359 5 0.701437 8.49354 11.0939 -10.1079 -10.4598 -17.209 
25356 5 3.08021 12.146 10.2169 10.0412 0.0904175 -13.0085 
25355 5 0.535314 12.2845 10.6518 -2.70194 -5.22006 -7.92804 
25354 4 1.48185 10.2856 9.54639 -13.5894 13.9255 -26.9044 
25353 3 1.39194 12.6945 8.41831 -11.1308 -7.34714 4.15652 
25351 2 1.63225 11.8296 9.72046 40.3082 48.1714 67.1166 
25286 5 2.93236 8.28049 10.0288 -5.54822 -15.9715 -19.4638 
25285 4 0.892127 7.85648 8.74192 -20.6247 -18.5857 -4.56073 
25279 2 1.49492 8.71367 9.83417 15.8443 97.8581 78.3696 
25259 1 4.86194 10.2149 10.3927 6.37105 9.2713 32.7534 
25327 6 1.60703 9.7444 6.34125 2.33004 1.43826 -0.80046 
25363 7 1.38635 9.50649 7.2315 0.482916 2.64924 1.37815 
22807 5 6.5607 12.2849 10.8694 -16.0389 -14.5562 -17.9936 
22730 5 6.65234 8.34528 10.5398 -4.73727 -14.4718 -14.3639 
22726 8 6.48614 10.4372 7.49213 -1.58225 17.8454 -26.6723 
22761 6 7.05704 10.8316 5.66761 1.77773 2.51253 6.86131 
22733 4 6.9844 11.7221 8.61372 -10.9459 -12.6511 -2.5682 
12511 7 29.6085 24.1647 15.6898 18.3159 5.85175 -8.40611 
22728 4 7.23016 9.05362 8.29312 -12.8945 -20.3439 -5.94739 
22953 7 7.91026 10.1976 5.3838 -0.0667433 0.100118 -0.652519 
22965 7 7.33207 11.8331 5.45166 -0.0491224 0.141642 -0.277344 
22741 7 11.5 7.01103 7.05421 2.60834 -0.0322041 -1.55764 
22700 6 10.8104 6.36788 7.23855 -16.1514 -2.06427 18.528 
22636 1 10.9188 6.69179 9.82281 4.2717 9.26369 12.7157 
22729 4 7.48133 6.61374 9.11192 -11.1166 -8.49162 -27.6806 
22668 7 10.5831 8.59932 7.42923 1.90475 4.36092 -3.21197 
22725 2 7.70374 8.13304 9.39568 26.9415 31.4046 97.5913 
22727 2 7.53968 12.6129 9.75953 17.26 132.978 81.8849 
22630 6 10.7174 9.56513 7.55044 -8.17928 0.719046 5.41379 
22667 7 11.6785 9.56 7.58776 1.26991 0.733864 -1.34065 
20110 3 13.3722 8.00482 7.87861 -10.8874 -1.18399 -3.79662 
20176 4 13.3404 12.979 8.33811 -6.55324 -6.94701 -3.97925 
20177 4 13.5478 10.5013 8.95979 -6.10773 -0.314237 -16.0735 
20173 2 13.7057 11.9908 9.40771 32.7846 -5.06721 75.5414 
20105 2 13.7244 8.93675 9.12343 -2.80481 6.74387 85.5938 
20178 5 12.5598 12.2564 10.4158 -7.60973 -12.7343 -22.5579 
20183 5 12.8988 8.51128 10.3587 -3.55659 -10.9154 -7.4963 
22734 5 8.97942 12.4092 10.1072 -12.3674 -12.5454 -17.7673 
22723 1 10.5486 10.4168 9.97488 -3.09762 4.05254 9.91244 
22731 5 9.11607 8.33188 9.85191 -15.5741 -24.2834 -22.5118 
20354 9 13.8366 7.1662 8.02076 -1.19418 -12.3217 -25.4135 
17489 7 15.3685 7.53149 7.27379 -6.21696 -2.27248 -3.79431 
17490 7 16.4114 7.08597 6.51817 -0.225184 0.0335316 -0.312511 
17451 6 15.9423 6.78743 7.29642 -18.7047 -17.1745 17.5934 
17555 4 19.5148 6.40419 9.24816 -10.6973 2.46477 -18.745 
20102 1 16.4765 6.46221 9.86905 11.048 0.120685 19.1916 
20179 5 15.0791 12.3713 9.86379 2.72786 3.67284 -11.7188 
20111 5 15.0953 8.51182 9.52882 -26.18 -13.8708 -15.2187 
17802 9 19.4832 11.878 7.51898 -0.107716 -0.0998896 0.168657 
17554 3 19.6317 8.68088 7.9737 -1.84738 -5.31623 6.14123 
17801 9 19.3812 9.57046 8.10065 0.618184 12.1639 6.37341 
17558 3 19.3121 11.5602 8.35726 -4.1642 -2.06341 -0.787735 
17552 2 19.7279 7.97853 9.40881 24.4531 57.9096 61.8103 
17553 2 19.7446 12.5897 9.5152 42.4799 42.7354 70.292 
17559 5 21.2085 12.1329 9.83297 7.00142 -0.437198 -10.9554 
17557 5 21.1128 8.33065 9.93016 0.991852 -11.7654 -15.9692 
17556 5 18.49 8.44005 10.194 12.6949 -3.85214 -7.34593 
17631 5 18.754 12.2185 10.6826 1.99914 -5.45885 -4.54741 
20084 1 16.8199 10.2664 10.3615 -10.9479 -3.99589 -0.300213 
17566 7 22.7737 6.49197 7.09029 0.0944353 0.0183146 0.0495211 
17525 6 23.2369 6.30614 7.97014 -30.0532 -5.88763 17.1492 
15249 9 26.4199 12.3989 7.50271 0.842357 0.685215 0.253782 
14924 1 28.8784 6.30371 10.2599 25.5649 20.7193 8.28139 
17459 1 22.8153 6.36449 10.4136 -83.1953 -68.0764 40.7401 
17550 1 22.6813 10.1773 10.109 18.8502 17.5677 8.52248 
15248 9 25.0074 7.30471 8.25379 6.72056 8.87188 8.72948 
15002 3 25.5553 12.1132 7.86039 -4.78508 -8.77 8.95087 
14932 3 25.8534 7.69566 8.37038 -4.59887 -4.18563 1.38078 
15003 4 25.6929 10.0578 9.40228 -8.99921 -5.83424 -24.0207 
15000 2 25.8234 11.5586 9.33827 29.4732 102.929 75.4571 
14927 2 25.9265 8.52626 9.67582 39.2593 66.9527 76.1033 
15005 5 27.2586 12.0307 9.65026 -1.66878 -12.6584 -17.6393 
14933 5 27.3368 8.19806 10.2714 9.39131 -14.1441 -18.1091 
15004 5 24.794 12.1885 10.2281 1.15222 3.1926 -12.1852 
14907 1 29.0423 10.186 10.3202 23.9981 19.1954 23.3795 
15008 5 24.7476 8.17989 10.6591 15.7631 -0.473669 -2.93029 
14899 6 29.4402 9.94521 7.67407 -3.23702 0.0438164 5.3816 
17637 7 24.0129 13.1402 7.48134 1.60938 0.649499 -0.17953 
25427 5 0.471403 16.2254 10.9577 6.08254 -3.67413 -4.32617 
25424 5 3.05777 19.7432 10.2643 -15.0955 -6.36387 -10.2183 
25423 5 0.62854 19.9386 10.7649 4.02748 -4.24884 -10.3157 
25422 4 1.53223 17.8586 9.5283 -9.68982 7.01222 -14.8322 
25421 3 1.35286 20.1653 8.46116 -3.22554 -2.53693 -0.0674581 
25419 2 1.68921 19.4163 9.80763 -41.2338 139.661 67.1603 
25358 5 3.0433 15.9649 10.3935 6.08664 -1.1552 -12.1034 
25352 2 1.62447 16.359 9.9389 55.9034 2.6406 39.2175 
25333 1 4.76049 17.9652 10.8964 -6.45342 13.5979 -41.0687 
25357 3 1.27516 15.4524 8.77037 -11.8162 -17.7409 19.5188 
25460 9 1.6173 15.8283 7.87293 0.0860734 0.363735 4.26981 
25349 1 4.58657 14.1062 10.6957 7.06579 16.2791 -7.12138 
22803 5 6.49129 16.0975 10.8756 1.27515 -0.394587 -0.446436 
22875 5 6.46084 20.071 11.1158 20.4186 8.03916 7.83832 
25459 9 1.48999 13.6574 8.56205 -1.48112 5.14012 -4.25824 
22801 3 7.03055 16.5942 8.55987 -2.23156 -6.91473 4.09999 
2179 7 -0.387305 20.8468 8.22815 14.4168 2.10853 -6.37463 
22805 3 7.32975 19.3599 8.91011 -8.44073 -8.77836 26.1788 
22908 9 7.54595 19.9046 8.12021 0.00883421 0.259225 6.53537 
22774 6 7.84223 14.1301 6.46407 2.07879 1.26535 1.98894 
22907 9 7.21638 17.5067 8.66763 -0.0745365 20.2513 1.77361 
22800 2 7.69826 20.1918 10.1825 71.8873 58.5928 37.3532 
22810 7 9.52718 17.6319 7.67339 -2.04619 0.948701 -2.05017 
22775 6 10.3724 17.5576 8.1234 -17.9752 -9.01611 6.79409 
22811 7 11.0269 17.744 7.42304 6.08791 1.05033 -1.27817 
20249 3 13.6146 20.1923 8.5115 -17.3572 -16.0283 19.6052 
22799 2 7.50164 15.6895 9.76752 1.79028 20.7112 71.7345 
20181 4 13.1648 15.598 8.7498 -9.5848 -32.0325 -11.8898 
20250 4 13.59 17.8559 9.69511 -13.6286 6.6065 -27.9046 
20247 2 13.6446 19.4223 9.89672 2.05283 29.3435 69.6057 
20175 2 13.7411 16.3389 9.95052 44.1985 115.865 87.4484 
20255 5 12.7826 16.0392 11.1348 -2.58881 -11.2158 -16.093 
20251 5 12.5994 19.887 10.8751 -0.429141 -0.229701 8.54612 
22797 1 10.5866 17.8329 10.6706 3.29611 -1.58054 17.6127 
22804 5 8.85928 16.0465 10.2629 -4.54735 -10.9154 -14.365 
22806 5 9.15709 19.6726 10.6518 26.2513 -12.6155 -11.5205 
20209 6 12.874 15.0323 5.7533 0.472304 -0.36388 1.51795 
20174 8 12.7095 14.4625 7.54514 27.4364 11.0273 -54.044 
22802 4 7.35344 14.1712 9.46207 -21.0591 9.39796 -29.136 
22707 1 10.7485 14.2517 10.2767 12.1553 10.5688 -5.20861 
20180 3 10.8086 14.0423 7.95232 18.2092 -8.89323 5.02785 
20260 7 13.0324 18.8856 6.99744 0.136145 1.33062 1.25989 
20261 7 12.9162 17.3666 7.33817 -0.505819 10.6489 5.65243 
20401 7 13.4229 15.9899 5.62814 -0.161022 0.312524 -1.2851 
20406 9 10.0189 14.4108 7.4707 -1.27862 2.86394 -2.46154 
20413 7 11.9327 15.1884 5.26927 -0.0683637 -0.0247313 -0.43923 
20222 6 12.7014 18.0477 6.67459 -0.75827 0.71096 -0.978931 
22813 7 7.7456 15.0607 6.62462 -0.07415 -0.0481545 0.0557689 
22812 7 7.44152 13.8113 7.30537 0.696262 1.43854 6.36355 
17861 7 18.0327 18.1656 5.18632 -0.0414991 -0.0258013 -0.195809 
17849 7 19.1146 19.332 5.5722 -0.0527411 0.152124 -0.566974 
17657 6 18.7692 18.3451 5.88217 -4.84472 -2.64223 15.2932 
20252 5 14.9691 19.7344 10.5394 -8.56233 -13.5845 -18.0954 
20182 5 15.2166 16.0409 10.213 -3.98227 -20.4657 -14.0011 
17622 8 18.5634 18.0799 7.75046 32.4068 27.7622 -13.533 
17854 9 15.9449 18.6012 8.0719 -0.326048 2.01258 -3.26103 
17628 3 16.7563 18.0742 8.25458 4.03922 -9.96974 9.42353 
17624 4 19.3217 16.6826 8.46567 -7.83488 -11.5714 -3.96517 
17629 4 18.9827 19.4332 8.85904 -13.7214 -12.2122 1.32656 
17621 2 19.6951 15.6526 9.54627 46.3658 95.2457 83.019 
17623 2 19.5501 20.2671 10.0023 52.7859 25.4543 75.5789 
17630 5 21.0316 19.7719 10.2793 12.5198 -2.67093 -15.4215 
17627 5 21.1919 15.89 9.96206 0.991901 -17.78 -16.8159 
20155 1 16.8424 17.9752 10.6946 2.10995 10.8604 -20.4296 
17626 5 18.7672 15.8963 10.7355 -8.59084 -8.68737 -12.0238 
20171 1 16.7158 14.1373 10.3208 5.25097 6.3373 -20.183 
17625 4 19.606 14.0957 9.12525 -6.05151 7.9278 -12.0851 
17564 7 21.4906 17.2833 7.58657 -0.60276 1.55439 -1.2066 
17703 5 18.6795 20.0258 11.2014 -14.9719 -12.4761 -21.328 
17709 7 19.905 20.6273 7.34679 2.93053 4.91371 4.38076 
20259 7 15.568 20.8847 8.4035 12.1624 3.50186 -2.34853 
17526 6 22.4132 17.452 7.70597 -7.55512 -6.65135 17.9254 
17563 7 22.8092 16.6576 7.3521 0.255767 0.357486 -1.87282 
17619 1 22.5682 17.9268 10.3236 11.6021 12.5252 -21.5397 
15250 9 25.4259 16.554 7.3496 3.23336 4.19581 70.5122 
15006 3 25.6058 15.7572 7.92658 -17.215 -12.2961 55.0427 
15072 4 25.3173 20.4252 8.40544 -12.8597 -7.91834 -2.35056 
15073 4 25.9599 17.9542 9.15621 -15.5474 6.23821 -35.1862 
15069 2 25.8295 19.4844 9.52152 46.1944 196.164 66.7745 
15075 5 27.2671 19.8707 9.91392 4.92846 -4.26369 -14.7202 
15001 2 25.8934 16.4473 9.39988 30.9971 21.9608 34.1108 
15007 5 27.2951 15.9854 9.7832 -0.614104 -10.5844 -16.1612 
14980 1 29.1857 17.8209 10.1444 -12.3843 -20.4484 15.0025 
15074 5 24.8028 19.6389 10.6176 -5.89471 -5.51021 -19.5516 
15079 5 24.8396 16.1163 10.4638 8.74222 -3.32123 -0.221566 
12533 7 25.4571 18.3754 7.23091 -0.39182 4.48261 6.07166 
17532 1 22.9834 14.1035 10.1761 9.82024 12.5216 8.56741 
14998 1 28.6373 13.9834 10.0874 20.1457 24.6305 13.4014 
12492 6 25.1645 17.9196 6.43544 -1.27557 -1.71679 -0.943697 
12532 7 24.2391 17.8074 6.45162 -0.0699849 0.011506 -0.220268 
17636 7 24.2982 14.6547 7.77674 3.13723 -4.66654 -4.41936 
17597 6 27.3956 19.7327 6.47718 -16.3534 -1.06084 1.1418 
17635 7 27.0344 19.9354 7.31032 6.34656 1.18917 -2.39505 
17596 6 23.5563 13.9987 7.66239 -11.3946 -1.59868 4.48168 
14974 6 28.7308 14.0837 7.53935 -5.6657 -10.8771 7.40337 
17634 7 26.9707 18.9124 6.11254 0.288434 0.569665 -0.15325 
15084 7 28.6931 18.2675 6.90767 0.590996 2.77346 -1.55726 
15012 7 28.1952 14.867 7.30744 1.76308 1.78948 -1.76996 
15044 6 29.2899 17.8272 7.55162 -18.4442 -15.3452 14.4074 
15011 7 29.5706 14.1102 6.99075 5.04397 0.876385 -0.290337 
25461 9 1.63963 21.1191 8.56579 -0.439061 8.97974 -6.07009 
25417 1 4.459 21.7465 10.9217 -17.1281 -19.5272 -39.6278 
24923 5 0.754769 27.5218 10.9484 5.75638 1.93229 -2.59972 
25425 3 1.35108 22.98 8.77836 -10.5204 -8.41774 18.4021 
24927 5 0.559259 23.61 11.1153 15.6851 -1.54732 7.70211 
25426 5 3.10363 23.8017 10.4009 3.5355 -9.33477 -9.44464 
25420 2 1.64879 23.9265 10.0018 35.8339 97.9553 59.0338 
25401 1 4.97038 25.5329 10.7242 11.2578 4.82084 1.00062 
24924 5 3.18735 27.1766 10.4054 -6.30161 -6.00014 -14.2817 
24922 4 1.38256 25.4386 9.75254 -16.459 10.4415 -16.9092 
24919 2 1.7823 26.9563 9.95451 1.44269 143.862 60.9851 
24921 3 1.55556 27.7248 8.56562 -3.24137 -0.912019 8.35302 
25462 9 1.60156 23.3783 7.96981 -0.0564098 0.11891 1.81268 
22871 5 6.64021 23.6959 10.9095 4.97167 -4.53532 -4.67964 
25451 9 2.36751 27.8615 8.13061 0.0509179 0.480342 1.54628 
22375 5 6.78156 27.3777 11.2762 2.05699 -3.99969 -3.44217 
20355 9 13.7553 21.1037 8.67011 -2.66083 21.2632 -0.848346 
22873 3 7.36095 26.8242 8.94079 -1.64904 -2.87475 22.7426 
22910 9 7.83453 27.1872 8.16884 0.0161539 0.302026 5.2002 
22881 7 10.5673 22.2037 7.78641 0.175931 0.148337 -0.59699 
22880 7 12.0072 21.7432 8.22322 12.086 4.40763 -4.55652 
22869 3 7.56442 24.0265 8.5961 -0.859793 -1.29205 0.71487 
22842 6 11.0399 21.8185 8.50693 -11.5943 -8.50825 2.73267 
22909 9 7.42422 24.9915 8.72358 -0.301695 9.48619 -0.641951 
22870 4 7.80675 21.6814 9.76784 -9.76254 13.1012 -14.1118 
22781 1 10.8959 21.6885 11.0129 -26.0949 -19.4764 23.8572 
22868 2 7.76545 27.7412 10.1816 38.1019 97.956 40.5955 
22867 2 7.78902 23.2324 9.92461 53.9331 188.763 70.3359 
22381 7 12.0152 26.341 8.4485 11.0482 9.13502 -1.43488 
20253 3 13.4682 23.4016 8.82795 -29.4764 -27.7021 6.6327 
22380 7 10.8121 26.2531 7.54966 0.0741926 0.105731 0.0960498 
22342 6 11.2091 25.8188 8.3988 -19.3292 -2.66964 29.9447 
20317 3 13.3219 27.8427 9.08682 -10.2111 -13.0586 -8.62396 
20248 2 13.7696 24.0294 10.2263 8.20469 3.7551 110.621 
20318 4 13.624 25.5447 10.0164 -29.0785 -18.9887 -43.6696 
20315 2 13.7788 27.0543 10.3348 51.1343 -14.2899 83.2602 
22865 1 10.6865 25.3992 10.9226 11.8309 11.0861 0.720009 
22872 5 9.17462 23.6871 10.462 5.21388 -15.2888 -13.8733 
22874 5 9.24947 27.6706 10.5948 6.6401 -9.83327 -10.0775 
20356 9 12.5954 23.6209 8.49206 10.3061 3.87375 -9.86383 
25431 7 14.1509 26.52 7.83751 1.08305 4.71619 6.68946 
20323 5 12.8525 23.6161 11.429 2.42617 -7.7738 1.43863 
25430 7 14.093 24.9955 7.86813 1.69341 4.72628 10.3342 
25395 6 14.4016 25.7329 7.27378 -0.139715 0.0916023 -0.155196 
20258 7 15.2294 22.3163 8.12146 1.33898 0.121081 -1.42326 
20223 6 16.0015 21.7513 8.2238 -7.27649 -1.207 9.0575 
20245 1 16.5342 21.695 10.8038 16.6194 20.5142 39.212 
17698 4 19.4354 21.7483 9.56107 -11.8459 -3.78394 -28.7076 
20320 5 15.2214 27.4242 10.856 4.55172 -11.1883 -15.1127 
20254 5 15.1801 23.5949 10.561 -16.0791 -11.4408 -20.558 
20329 7 17.2434 26.6466 8.28058 3.99992 3.19337 -3.72283 
20328 7 16.0419 25.8023 7.61998 1.70223 -0.0188581 -0.102092 
17803 9 18.6355 24.4714 8.19816 9.14044 9.21841 -0.627955 
20290 6 16.6573 25.8385 8.42977 -27.0806 -4.6137 8.8425 
17697 3 19.4666 23.9299 8.24968 -7.37076 -15.5184 7.20969 
17701 3 18.7572 27.5768 9.07536 -11.285 -29.4588 -2.96762 
17695 2 19.6311 23.298 9.64847 1.16857 4.91731 79.1406 
17696 2 19.6976 27.9701 10.2409 32.7639 100.217 91.2359 
17700 5 20.9899 23.6351 10.1729 -17.3384 -7.48782 -19.1847 
17702 5 21.0953 27.3466 10.1236 7.76647 -13.5346 -20.8384 
17699 5 18.7076 23.7838 10.7613 -2.98614 -4.05382 -2.2511 
20229 1 17.0048 25.6018 10.9426 18.2538 15.242 -26.0561 
17708 7 20.0702 22.1005 7.0657 -0.237037 1.39004 0.773805 
17670 6 20.1319 21.2549 6.64674 -0.748146 0.867509 -1.23652 
17707 7 20.7868 25.2363 7.6314 4.67889 4.92128 -0.0468677 
17706 7 21.1787 26.5559 8.43819 0.124017 6.52191 6.81114 
17671 6 21.5933 25.7538 7.94146 -0.407325 -4.81817 5.23188 
17804 9 18.1596 28.2261 8.79174 4.28542 -0.385022 -3.14069 
15302 9 22.12 22.0167 7.2663 -10.7737 2.27373 -0.686682 
15082 7 28.9341 21.4367 6.98265 -0.122106 1.91117 -3.1146 
15309 7 26.1711 21.1856 5.56242 -0.0512582 0.353411 -0.578772 
15297 7 25.7773 22.9358 5.36905 0.0247663 0.421754 0.0416548 
15076 3 22.8653 21.7306 7.945 5.24835 -10.2168 7.17823 
15105 6 25.4296 21.9972 5.7434 2.51101 2.81444 8.64084 
15067 1 28.5009 21.8246 10.3102 6.617 13.5546 29.2419 
17603 1 22.8719 21.8054 10.3091 42.068 31.6275 62.5214 
15070 8 24.6898 21.8654 7.53391 8.54842 21.875 -6.33808 
15157 7 24.761 24.7113 6.5409 0.0847198 1.43766 -2.19027 
17693 1 22.4585 25.6458 10.3024 35.4878 46.6899 57.643 
15118 6 24.3516 25.0692 5.80024 0.216898 -0.0168487 -0.0796425 
15156 7 23.4675 25.4068 6.08223 0.347376 0.0661005 -0.0161393 
12750 9 28.7793 27.0604 8.02173 -18.1557 -1.30239 -3.51947 
15145 3 25.8709 28.1424 8.32624 -24.9521 -10.1691 23.8323 
15077 4 25.2347 23.1977 8.50469 -14.7005 -21.6845 -11.2123 
15146 4 25.5466 25.6818 9.29943 -7.658 17.9434 -15.3847 
15143 2 25.8227 27.2278 9.63665 33.2254 57.793 41.7185 
15071 2 25.6377 24.1622 9.58877 42.3401 136.261 69.2743 
15078 5 27.0823 23.775 9.8664 3.46401 -1.41172 -12.2907 
15148 5 27.2019 27.5255 10.2775 11.4743 -13.2999 -16.1916 
15051 1 28.9278 25.6837 10.4438 0.535007 13.2686 50.7707 
15147 5 24.7278 27.7419 10.5663 3.70842 -2.12751 -8.20794 
12524 3 29.1596 26.0649 8.01414 -11.2696 -1.26145 9.03786 
15045 6 29.2043 21.7754 7.82857 -18.6208 -10.987 5.02335 
15251 9 25.5134 27.6474 7.63837 -0.0836539 -0.291759 15.5925 
15151 5 24.6677 23.8201 10.7274 -5.06479 -7.8122 -16.4932 
25312 7 0.0792458 4.91441 18.7659 17.2157 1.00726 8.83552 
25272 7 0.608767 4.42485 16.1677 4.51509 -1.95886 8.58885 
25198 5 4.5419 2.55475 12.6561 -16.1357 -9.3314 -9.59662 
25195 5 4.3158 -1.09258 12.7632 -0.663788 -3.53426 3.67934 
25511 9 0.0419666 1.88277 15.8087 -11.0738 4.79448 -3.51979 
22635 1 6.05896 0.692999 12.8525 -18.7394 -3.82716 -7.53221 
25268 5 2.06322 2.89899 12.9931 0.410544 -10.7968 -22.483 
25258 1 0.250924 4.4912 12.7638 -14.5177 -11.8974 4.547 
25207 1 0.476342 0.786529 13.0733 10.8024 36.6239 21.6831 
25191 2 3.47612 3.03985 13.5769 18.5491 -25.4948 64.5116 
25263 4 3.57926 4.53329 13.9916 -25.7387 -7.45889 -31.3392 
25197 4 3.26023 2.0922 14.7531 -9.29249 -15.873 -2.57953 
25192 4 3.04502 -0.482259 14.848 -6.58518 -6.596 -0.798822 
25196 3 0.614589 1.15409 15.358 14.3312 -13.0973 6.00499 
25190 8 2.45503 0.898355 15.816 18.7436 32.8589 -18.1616 
25240 6 2.48458 0.84575 17.6762 -0.906498 -18.8002 3.23175 
25519 7 2.7311 -0.00754298 18.2587 -2.34154 3.57927 -2.3009 
25507 7 1.60393 1.18112 18.2208 1.8343 0.701378 -14.7443 
25308 6 0.0154174 4.31429 15.3556 -29.1919 -9.02344 22.3024 
25270 6 1.43508 4.2639 17.9146 -34.9446 12.7788 -23.1477 
22655 1 6.37544 4.67075 12.8239 0.551656 10.1051 -0.63761 
25194 5 1.89442 -1.62182 13.1754 -0.765096 -14.2905 -18.5721 
25189 2 3.31878 -1.5892 13.8009 42.7034 43.6903 89.4139 
25309 7 2.07315 4.88211 18.2547 1.68806 -7.06536 4.27574 
22683 6 6.18006 0.45402 15.4247 -16.5436 -1.45656 9.10195 
22644 3 6.91049 4.58937 15.2288 1.09561 -14.3988 12.6839 
22650 7 6.30866 -0.471647 15.7146 2.17052 0.238796 -2.88133 
22959 9 6.20589 4.32919 15.9596 -20.7841 3.34497 -2.89286 
22649 6 4.10676 4.51383 17.0873 -14.7477 -4.61478 -15.875 
22687 7 5.54156 1.27547 18.6444 12.1225 -0.0397474 -1.66835 
20062 7 7.18276 2.82523 17.4969 1.24446 15.0372 0.778492 
25310 7 1.61063 3.51607 18.5562 -1.58989 -2.65317 2.35851 
22651 7 6.57183 0.860824 16.2379 4.24552 -1.24924 7.0282 
22685 7 3.99632 3.56823 17.0827 0.967272 0.259172 -0.0238925 
22760 7 4.98291 4.85549 18.6442 2.49499 -0.428186 15.0831 
20023 6 7.25493 1.84333 17.7856 -11.8546 28.1461 -9.70726 
22684 7 4.03536 4.70321 16.1365 0.781479 4.48137 13.8837 
20061 7 7.86626 1.91881 18.5616 1.48155 -5.55933 -6.95658 
20063 7 14.5232 -0.308527 17.7458 -1.23038 8.22534 -12.0771 
20022 6 14.1168 0.447129 17.2013 -0.774743 -3.46399 5.87426 
20101 7 8.70237 0.438386 17.6861 9.21616 5.0298 2.20018 
22931 9 9.77752 -0.781306 15.7166 -0.221003 5.08037 6.96655 
22643 5 10.3472 2.57234 12.1955 -1.99667 -4.12209 -8.75576 
20083 1 12.0539 4.57824 12.2941 24.8047 15.5848 23.4176 
22642 5 7.78438 2.32799 12.6693 -1.19671 -6.82434 -18.6354 
22572 5 10.3915 -1.19034 12.4814 -0.404493 -8.07991 -9.80211 
22647 5 8.01803 -1.15376 13.3887 9.84002 -14.0808 -16.1847 
20029 1 12.4935 0.818447 12.5759 5.14358 15.0156 -14.4051 
20095 5 13.8672 2.81253 13.0198 -12.5872 -10.4514 -13.2692 
22637 2 9.23854 2.21284 13.1776 46.1763 58.5111 71.1571 
22565 2 9.47766 -0.798971 13.6553 42.3997 57.4304 28.8115 
22641 4 9.6135 0.790931 13.697 -26.8011 3.72041 -25.9185 
22640 4 9.10375 3.21619 14.2882 -10.0795 -14.4788 -6.00014 
20060 6 12.0698 0.875585 15.0093 -17.9163 -9.16072 -1.85986 
20025 7 11.2791 0.397334 15.2063 0.0429328 -0.58087 -4.08534 
22638 8 8.72429 4.52438 15.4573 -23.6734 29.6551 -11.3645 
20024 7 12.7577 0.573381 15.7097 7.91093 2.10336 6.57469 
22688 6 9.35451 4.26024 17.2528 -1.76581 -1.77989 12.8887 
20130 6 9.50154 -0.0238792 17.2978 5.24323 2.05278 2.57228 
20016 5 13.8732 -1.10957 13.0216 2.07554 -14.1308 -19.5285 
20100 7 9.65063 -0.740019 17.9394 -0.476448 1.7324 9.29213 
22571 3 10.1416 -1.34898 14.9876 -15.1757 -24.6223 10.2272 
20135 7 12.6659 0.363989 18.3838 10.4518 3.96824 7.39351 
22955 7 9.28902 3.36086 17.7873 -1.31769 3.33421 -17.5049 
20134 7 11.1306 0.535788 18.3768 6.1378 1.13257 2.46051 
20096 6 11.9088 0.638576 19.0166 -7.77102 -8.98443 2.29244 
22967 7 9.15608 5.0434 17.9599 -1.3611 2.10999 -15.9784 
20379 9 14.8287 2.42882 15.6871 -1.1445 1.60131 -15.2917 
20366 9 14.9463 1.65219 19.3525 -0.167724 19.9921 31.8412 
20099 7 10.8691 4.25613 19.1206 0.120837 3.29719 -4.91341 
20064 7 14.5077 0.281811 16.3131 -4.71082 -0.796456 -10.4427 
25378 6 -0.247616 12.3367 15.8391 -18.5191 0.4042 11.2366 
22896 7 -0.728818 27.5087 18.2621 5.7658 1.31094 -2.68402 
17544 6 17.6708 3.88309 18.7804 -14.4467 -8.48648 -0.0225194 
20378 9 15.4007 0.0444891 14.8487 -0.974276 34.7491 28.362 
20012 2 15.2359 -1.61828 13.5115 10.4873 27.4749 64.7231 
17469 5 19.9364 -1.30131 13.4326 4.84952 -11.4463 -8.94277 
20017 5 16.2815 -1.21496 12.5395 7.67851 -0.857548 -5.89408 
20020 5 16.2894 2.4578 12.6312 -8.98019 -4.81312 -12.093 
17477 1 18.4308 4.50707 12.7514 51.8702 44.2727 62.4214 
17458 1 18.218 0.637135 12.871 46.9871 34.61 10.0119 
17464 5 19.9587 2.61017 13.0923 -8.65014 -12.7534 -15.0426 
20014 3 15.3481 -0.927596 14.9324 -20.4909 -12.0938 26.641 
20013 2 15.2355 2.86552 13.6686 32.5669 13.4246 36.1216 
20089 4 15.4847 4.41259 13.8828 -21.2658 -5.36291 -25.3958 
17460 2 21.2934 2.30374 13.8302 67.2403 206.972 30.412 
17386 2 21.2555 -0.760946 14.0881 58.9161 43.9684 33.2871 
20019 3 15.3444 1.9868 14.9732 -20.8034 -3.86851 14.5986 
17466 6 17.9627 0.527237 15.4301 -20.2466 -3.92235 14.7342 
17494 7 17.6238 -0.362033 15.5662 6.54649 0.915239 -6.50984 
17493 7 17.0986 1.05622 15.422 7.47447 -1.18297 -7.12897 
17471 6 19.5488 2.8907 16.9496 -25.1569 -20.8014 -30.9147 
17510 7 19.3646 1.98876 16.6795 0.466102 0.710062 -3.0715 
17509 7 20.0192 2.81942 17.7319 -1.05848 -1.31058 5.65488 
17463 4 21.2166 0.803669 14.1626 -11.0269 11.2017 -21.6492 
17508 6 18.0319 4.76207 15.3638 -26.4627 -13.2468 28.0965 
14959 7 21.2956 -0.74121 18.567 1.88441 16.4916 18.8016 
14960 7 21.2465 0.755139 18.3479 -3.18614 6.39347 10.1662 
17391 3 21.7558 -1.35889 15.4319 -9.92423 -17.4904 13.0872 
17825 9 21.5648 -0.660357 16.1486 0.161914 10.1011 98.4934 
17462 3 21.6576 3.1918 15.1188 -32.9657 -16.5019 5.84268 
14918 6 21.4277 -0.0504254 17.8163 6.15183 1.84322 4.95089 
17826 9 20.8652 3.08521 15.7031 3.36503 -1.66714 -13.1413 
17583 7 18.2218 3.5817 18.0381 4.06102 2.07114 -0.320087 
17582 7 16.8649 3.27807 18.7373 9.35785 6.0388 -2.94916 
17827 9 21.3492 5.11971 15.2989 0.354228 12.3153 -4.88358 
17472 7 18.2151 4.10321 16.0673 5.79202 5.60856 -1.32677 
17473 7 17.1228 4.59919 15.1055 9.55169 0.726886 -0.774829 
17457 7 17.7025 -0.180399 17.9486 3.11075 1.61916 -2.87514 
17456 7 16.6657 -0.425903 19.0373 -0.658553 1.09383 -6.36652 
17503 6 17.5189 -0.0693226 18.8735 -22.6643 -11.1387 5.79411 
14905 7 22.7988 5.3475 19.1948 0.163492 -0.155764 -4.31366 
15310 7 27.7054 -0.747206 17.0927 5.86493 11.9771 28.2157 
17392 5 22.3788 -1.113 13.0479 14.7347 0.295771 6.46189 
14833 2 27.436 -1.7351 13.7653 6.58053 -21.8062 94.6285 
14837 5 26.0685 -1.25524 13.3193 -5.93155 -12.7863 -18.0171 
14835 3 27.5959 -1.03396 15.1647 -14.23 -7.49857 -7.22437 
17465 5 22.4822 2.65522 12.8638 -0.465407 1.29618 -7.82784 
14838 5 28.4591 -1.17305 12.8109 -7.49552 -4.92578 -14.6116 
14840 5 28.4301 2.34442 12.9979 -18.2101 -2.74254 -5.51296 