ITEM: TIMESTEP
170000
ITEM: NUMBER OF ATOMS
25517
ITEM: BOX BOUNDS pp pp ff
-3.8959205201285124e-01 6.0088135642019459e+01
-1.9452389155355383e+00 5.9115524189537531e+01
-1.2206056431032383e+01 1.1390111600702880e+02
ITEM: ATOMS id type x y z v_stressx v_stressy v_stressz 
25292 7 5.89857 3.03966 7.5916 -2.49518 -8.49896 -6.16314 
25293 7 5.98077 1.53035 7.7064 -1.9226 -5.88152 -1.85785 
25252 6 5.35811 2.25094 7.51796 -6.31518 -3.25986 0.201392 
25287 5 0.61597 0.755495 10.7564 7.63353 -1.59121 3.71656 
25283 5 2.94291 4.2301 9.842 10.8553 6.4008 -12.7729 
25281 4 1.3887 2.44216 9.07367 -12.6406 1.74761 -15.4191 
25280 4 1.07853 5.00258 8.46007 -12.8683 -8.68001 -6.41071 
25277 2 1.45655 3.94107 9.49571 51.6312 34.7415 76.9598 
25215 5 2.99957 0.588718 9.72621 -14.306 -10.017 -11.8014 
25209 2 1.59287 0.935181 9.44522 9.09616 -58.799 72.3733 
25188 1 4.8243 2.58953 9.97468 5.32303 1.47709 14.593 
25214 3 0.796635 0.0137284 8.44439 -1.72161 -4.81476 3.20313 
25282 5 0.520916 4.37471 10.6565 -15.2652 -14.4633 -18.2793 
25458 9 1.40812 -0.435335 7.83607 0.0143189 2.15436 1.77315 
25206 1 4.52732 -1.17961 10.115 34.5288 37.9069 20.1684 
22660 5 6.52822 0.875659 10.2203 -1.48793 -5.5498 -16.028 
22735 5 6.623 4.87348 10.5536 2.6245 -9.16691 -14.2688 
25505 7 1.83983 5.65447 5.50835 -0.0578683 -0.166345 -0.297372 
22662 3 7.17647 4.29529 8.22411 -12.1638 -23.1568 -18.8748 
22658 3 7.30314 0.346889 7.89736 -14.9581 -15.3097 -11.5701 
22905 9 7.65252 -0.485879 7.46068 0.0205911 -0.412693 -4.4907 
22906 9 7.50322 4.57024 7.35908 -2.73753 4.3124 9.72605 
20115 7 11.1372 2.292 6.49758 0.446618 -0.00649964 -1.16191 
22656 2 7.7059 0.365729 9.40584 22.1326 73.5479 63.0165 
20116 7 12.1136 2.88755 7.40659 19.6586 6.71666 2.344 
20078 6 11.1398 2.86581 7.23657 -15.9465 -11.6787 2.11811 
20106 3 13.741 4.72985 7.46261 -15.7024 -10.983 42.7637 
22657 2 7.60419 5.1024 9.41016 53.9734 -16.3653 20.0057 
20036 3 13.619 0.47741 7.57109 -16.5679 -19.4956 16.9728 
20107 4 13.6664 2.6833 8.8298 -17.9048 -14.2637 -33.6483 
20104 2 13.8784 4.18168 8.97251 31.2564 36.3683 93.1462 
20031 2 13.7132 1.1448 8.96008 62.5076 164.048 14.4932 
20108 5 12.6966 4.70757 9.81807 14.8347 11.9651 1.69985 
20112 5 12.4932 0.846951 9.91178 10.9892 -0.202568 5.35044 
22654 1 10.4859 2.78478 9.68506 11.379 10.492 11.4545 
22661 5 9.03983 1.11007 9.56315 -7.53372 -6.34191 -16.4405 
22663 5 9.10858 4.7108 9.73761 4.37621 -12.8943 -15.285 
22563 1 10.886 -1.13469 10.1589 0.264472 -0.46682 -6.34251 
22659 4 7.7627 -1.12896 9.68153 -9.57362 -34.9185 -35.2804 
22629 6 11.3751 -1.065 7.76545 -16.7222 5.07501 2.69446 
22669 7 11.9249 -0.207968 7.44815 1.30126 5.21065 -1.31485 
20352 9 13.8605 1.22514 6.87465 0.716621 12.5316 14.6228 
20189 7 14.2777 3.18994 6.51456 0.276006 13.5104 8.38462 
20353 9 14.543 5.23857 7.22704 7.74154 13.2076 16.7888 
20148 6 14.5671 2.45013 5.87332 0.144484 0.0577267 0.0975153 
22740 7 11.2703 5.5881 6.8279 3.28363 1.48108 -1.15994 
22738 7 8.76742 5.41578 5.90114 -0.685626 0.701035 -1.33742 
22701 6 7.85394 5.37142 5.69312 0.480598 -0.320678 7.86911 
22739 7 7.886 4.86164 4.87022 -0.0111506 0.0203368 0.00875953 
22670 7 11.9327 -1.89861 7.72342 1.04704 1.6507 -5.30983 
20188 7 15.4435 2.20345 6.22553 0.812482 -0.137573 0.0753795 
20037 5 15.0057 0.565552 9.66218 -1.04743 -6.90792 -13.0428 
20118 7 17.8719 2.63796 7.70159 5.6706 -0.35267 -2.87236 
20117 7 17.6995 1.17882 7.44002 3.0222 2.52418 -4.66593 
17799 9 19.455 -0.241526 7.33338 0.3286 6.57804 17.9668 
20077 6 17.1284 2.01775 7.60787 -23.1866 2.48583 26.5263 
17484 3 19.536 4.02271 8.03155 -4.2251 -2.57649 -2.44352 
20109 5 15.1822 4.68195 9.53593 -5.82912 -7.34128 -17.2661 
17480 3 19.3808 0.510653 7.95906 -16.5185 -31.8343 10.8214 
17478 2 19.7385 0.13463 9.405 33.2256 34.7984 48.0067 
17479 2 19.7269 4.90401 9.32133 46.8101 113.605 59.8578 
17485 5 21.0972 4.45706 9.83859 4.89633 -16.046 -16.3602 
17483 5 21.125 0.57616 9.92672 5.08945 -10.0239 -13.2186 
17482 5 18.7273 0.612358 10.4453 1.12101 -3.66113 -4.99062 
17560 5 18.5746 4.39351 10.2378 -0.940252 1.73356 -10.7049 
20011 1 16.7883 2.43064 10.1919 50.4392 45.7158 50.3611 
20028 1 16.5417 -1.33752 10.1131 23.7381 17.0263 10.692 
17481 4 19.613 -1.37684 9.30614 -12.339 -19.7019 -38.2893 
17800 9 20.2785 3.41394 7.96437 0.312256 -2.8973 -5.45079 
20002 6 16.2002 -1.21507 7.53432 -10.3809 -7.5222 13.6454 
20044 7 15.5857 -0.449442 7.68688 4.32757 8.5609 -2.90039 
20043 7 16.3516 -1.12082 6.60323 0.281274 0.201237 -0.84945 
17377 6 19.8786 -1.6773 6.3322 0.24752 -0.138848 -0.0013662 
17415 7 20.5742 -1.92657 6.98281 2.85792 2.47771 2.00343 
14864 7 23.6314 3.83266 7.75133 5.57647 -4.69438 -1.4498 
14825 6 23.2988 2.969 7.82153 -9.2611 -3.79742 1.39602 
14863 7 24.1611 2.53617 7.90018 3.8626 -1.33593 -0.590172 
17476 1 22.5994 2.5974 10.2549 -65.7545 -40.9965 36.3391 
14928 3 25.5679 4.59148 8.20809 -31.3228 -50.1382 -46.8736 
15246 9 24.7065 0.00657495 8.04332 7.91607 10.7734 19.9779 
14856 3 25.5405 0.383335 8.16649 -12.5211 -14.7704 10.7692 
14929 4 25.6618 2.47021 9.27814 -17.7031 -35.1127 -33.3166 
14851 2 25.7726 0.935136 9.6021 19.7414 -190.583 74.6289 
14926 2 25.8313 3.99121 9.61155 28.1697 146.349 87.4498 
14857 5 27.172 0.513951 10.0212 -9.61779 -11.7001 -21.0457 
14931 5 27.2703 4.30837 10.1061 -28.2759 -11.5836 -17.6559 
14832 1 28.9014 2.41808 10.4207 15.1516 12.007 58.6876 
14930 5 24.8007 4.37565 10.6576 12.5014 -4.61619 -13.2866 
14934 5 24.7275 0.511689 10.6576 4.43749 -3.67619 -0.760391 
17384 1 22.8636 -1.16741 10.5973 -0.690327 4.14443 2.02985 
14848 1 28.7231 -1.43222 10.2624 14.5391 18.8222 -1.63125 
14898 6 29.1786 2.45721 7.88738 -13.8052 -15.3599 5.81287 
15247 9 26.3681 4.66526 7.72718 -1.61619 -1.09131 -15.3004 
14826 6 28.1456 -1.3901 7.71182 1.3161 -3.4372 26.4608 
14861 7 27.5228 -0.59177 7.7367 4.99842 5.85725 -2.20899 
14862 7 28.7608 -1.17174 6.9734 0.155612 0.0373749 -0.0688292 
17565 7 23.8543 5.62398 7.62904 12.5088 3.72827 -1.51833 
17491 7 23.3409 -0.830267 7.25909 0.0948403 0.0717409 -0.454593 
12347 6 29.4782 5.3719 8.00631 -15.3082 -7.1819 4.10832 
14939 7 29.2544 3.33895 7.63004 0.452106 -0.923724 -1.19419 
17492 7 24.1978 -1.77871 8.08715 8.12646 2.4645 -6.26071 
17450 6 23.2929 -1.42611 8.02021 -21.3847 -6.95166 19.0801 
25291 7 5.22591 6.53661 7.32751 1.19917 1.63601 -3.06972 
25290 7 3.82687 6.55555 6.86919 -0.694888 1.6334 -4.32609 
25253 6 4.33607 6.71227 7.63615 -9.67795 -11.4998 1.64757 
25517 7 1.84279 7.29014 5.50902 -0.0270863 -0.063486 -0.547259 
25313 6 1.21101 6.45671 5.78137 6.08588 -4.96846 29.8826 
25362 7 1.19888 10.608 6.31952 -0.0186866 -0.0231192 -0.010197 
25275 1 4.36027 6.50413 10.1833 3.56743 12.6763 2.36893 
25278 8 0.639374 6.49188 7.63496 52.9553 31.4513 9.64218 
22958 9 3.89074 10.3239 7.2783 -3.47641 1.48744 0.299621 
22732 3 4.70032 10.3548 7.96195 2.30046 -12.6402 13.4681 
25359 5 0.701437 8.49354 11.0939 -10.103 -10.9144 -16.5598 
25356 5 3.08021 12.146 10.2169 9.71166 -0.0172057 -12.7982 
25355 5 0.535314 12.2845 10.6518 -2.6635 -5.137 -7.4547 
25354 4 1.48185 10.2856 9.54639 -13.8258 13.5952 -25.8065 
25353 3 1.39194 12.6945 8.41831 -11.4128 -7.35055 5.2346 
25351 2 1.63225 11.8296 9.72046 41.7175 49.0524 65.3938 
25286 5 2.93236 8.28049 10.0288 -5.56027 -16.0969 -18.2231 
25285 4 0.892127 7.85648 8.74192 -20.6878 -18.3692 -3.40324 
25279 2 1.49492 8.71367 9.83417 16.3151 96.0539 72.2839 
25259 1 4.86194 10.2149 10.3927 7.50605 9.17223 49.3198 
25327 6 1.60703 9.7444 6.34125 2.37392 1.50508 -1.01867 
25363 7 1.38635 9.50649 7.2315 0.450358 2.61174 1.67667 
22807 5 6.5607 12.2849 10.8694 -15.7666 -14.4422 -17.4722 
22730 5 6.65234 8.34528 10.5398 -4.62629 -14.7549 -13.2133 
22726 8 6.48614 10.4372 7.49213 -1.61031 17.9114 -26.1358 
22761 6 7.05704 10.8316 5.66761 1.78283 2.51483 6.84458 
22733 4 6.9844 11.7221 8.61372 -10.8948 -12.6505 -2.65996 
22728 4 7.23016 9.05362 8.29312 -12.9156 -20.3108 -5.66352 
22953 7 7.91026 10.1976 5.3838 -0.0666803 0.100016 -0.652564 
22965 7 7.33207 11.8331 5.45166 -0.0493547 0.141631 -0.277493 
22741 7 11.5 7.01103 7.05421 2.60365 -0.0292961 -1.55211 
22700 6 10.8104 6.36788 7.23855 -16.0369 -2.10535 18.469 
22636 1 10.9188 6.69179 9.82281 4.45965 9.22405 11.8451 
22729 4 7.48133 6.61374 9.11192 -11.4078 -8.49047 -27.3849 
22668 7 10.5831 8.59932 7.42923 1.90813 4.36271 -3.2403 
22725 2 7.70374 8.13304 9.39568 27.4795 31.9448 97.7126 
22727 2 7.53968 12.6129 9.75953 16.6442 132.691 80.6489 
22630 6 10.7174 9.56513 7.55044 -8.20014 0.708722 5.43265 
22667 7 11.6785 9.56 7.58776 1.27243 0.735323 -1.36333 
20110 3 13.3722 8.00482 7.87861 -10.9623 -1.16238 -3.37377 
20176 4 13.3404 12.979 8.33811 -6.57569 -6.96505 -4.05112 
20177 4 13.5478 10.5013 8.95979 -6.28157 -0.319427 -15.982 
20173 2 13.7057 11.9908 9.40771 33.6572 -5.15383 76.5219 
20105 2 13.7244 8.93675 9.12343 -1.71028 6.73502 83.9982 
20178 5 12.5598 12.2564 10.4158 -7.87201 -12.4281 -22.7102 
20183 5 12.8988 8.51128 10.3587 -3.63049 -11.0425 -7.81459 
22734 5 8.97942 12.4092 10.1072 -12.208 -12.4058 -17.3172 
22723 1 10.5486 10.4168 9.97488 -3.02198 4.1542 9.68712 
22731 5 9.11607 8.33188 9.85191 -15.6369 -24.4035 -22.3725 
20354 9 13.8366 7.1662 8.02076 -1.12851 -12.2657 -25.5992 
17489 7 15.3685 7.53149 7.27379 -6.20875 -2.2654 -3.79901 
17490 7 16.4114 7.08597 6.51817 -0.22547 0.0336371 -0.311582 
17451 6 15.9423 6.78743 7.29642 -18.7191 -17.2478 17.5964 
17555 4 19.5148 6.40419 9.24816 -10.813 2.37025 -18.3638 
20102 1 16.4765 6.46221 9.86905 11.001 0.504761 18.7352 
20179 5 15.0791 12.3713 9.86379 2.70892 3.77676 -11.5759 
20111 5 15.0953 8.51182 9.52882 -26.245 -13.9065 -14.6247 
17802 9 19.4832 11.878 7.51898 -0.107813 -0.096221 0.168124 
17554 3 19.6317 8.68088 7.9737 -1.84365 -5.29055 6.17707 
17801 9 19.3812 9.57046 8.10065 0.606431 12.1529 6.35837 
17558 3 19.3121 11.5602 8.35726 -4.1365 -2.11735 -0.691705 
17552 2 19.7279 7.97853 9.40881 25.0779 57.9324 59.9872 
17553 2 19.7446 12.5897 9.5152 42.5901 43.1091 70.1055 
17559 5 21.2085 12.1329 9.83297 6.9325 -0.515576 -10.9945 
17557 5 21.1128 8.33065 9.93016 0.935146 -11.6373 -15.4999 
17556 5 18.49 8.44005 10.194 12.7464 -3.70175 -7.34105 
17631 5 18.754 12.2185 10.6826 2.07654 -5.20079 -3.7974 
20084 1 16.8199 10.2664 10.3615 -11.2145 -4.18332 -1.31423 
17566 7 22.7737 6.49197 7.09029 0.0938015 0.0177786 0.052702 
17525 6 23.2369 6.30614 7.97014 -29.9211 -5.812 17.0264 
15249 9 26.4199 12.3989 7.50271 0.841735 0.683689 0.248949 
14924 1 28.8784 6.30371 10.2599 25.5855 20.5117 8.6337 
17459 1 22.8153 6.36449 10.4136 -84.0678 -68.2019 20.6846 
17550 1 22.6813 10.1773 10.109 18.838 17.626 8.48464 
15248 9 25.0074 7.30471 8.25379 6.73124 8.82261 8.74588 
15002 3 25.5553 12.1132 7.86039 -4.79921 -8.75925 8.96355 
14932 3 25.8534 7.69566 8.37038 -4.63243 -4.14605 1.31725 
15003 4 25.6929 10.0578 9.40228 -9.09261 -5.98463 -23.6495 
15000 2 25.8234 11.5586 9.33827 30.0313 103.774 75.6786 
14927 2 25.9265 8.52626 9.67582 39.2839 66.0617 73.6717 
15005 5 27.2586 12.0307 9.65026 -1.74676 -12.8988 -17.4622 
14933 5 27.3368 8.19806 10.2714 9.63501 -13.8213 -17.343 
15004 5 24.794 12.1885 10.2281 1.06841 2.89569 -13.3991 
14907 1 29.0423 10.186 10.3202 23.5137 19.244 22.624 
15008 5 24.7476 8.17989 10.6591 15.8595 -0.117176 -1.81017 
14899 6 29.4402 9.94521 7.67407 -3.22143 0.0541359 5.38895 
17637 7 24.0129 13.1402 7.48134 1.60983 0.643548 -0.190928 
25427 5 0.471403 16.2254 10.9577 6.25344 -3.60711 -4.69957 
25424 5 3.05777 19.7432 10.2643 -15.1083 -6.46565 -10.081 
25423 5 0.62854 19.9386 10.7649 4.02024 -4.29973 -9.68276 
25422 4 1.53223 17.8586 9.5283 -9.77234 7.19118 -14.3377 
25421 3 1.35286 20.1653 8.46116 -3.21332 -2.56465 -0.0772945 
25419 2 1.68921 19.4163 9.80763 -40.882 139.967 65.565 
25358 5 3.0433 15.9649 10.3935 6.01207 -1.13472 -11.4327 
25352 2 1.62447 16.359 9.9389 57.085 2.41154 36.4893 
25333 1 4.76049 17.9652 10.8964 -4.98742 13.4606 -12.3604 
25357 3 1.27516 15.4524 8.77037 -12.1996 -18.0511 19.9993 
25460 9 1.6173 15.8283 7.87293 0.0893303 0.364598 4.30037 
25349 1 4.58657 14.1062 10.6957 6.90016 16.3865 -17.2624 
22803 5 6.49129 16.0975 10.8756 1.4299 -0.488422 0.581278 
22875 5 6.46084 20.071 11.1158 20.3085 8.29465 9.0832 
25459 9 1.48999 13.6574 8.56205 -1.05904 5.22702 -4.57671 
22801 3 7.03055 16.5942 8.55987 -2.20354 -6.89881 4.02171 
2179 7 -0.387305 20.8468 8.22815 14.3807 2.18338 -6.34401 
22805 3 7.32975 19.3599 8.91011 -8.48715 -8.7015 25.7576 
22908 9 7.54595 19.9046 8.12021 0.00987031 0.260298 6.5506 
22774 6 7.84223 14.1301 6.46407 2.06816 1.2729 1.92303 
22907 9 7.21638 17.5067 8.66763 -0.083038 20.2296 1.81728 
22800 2 7.69826 20.1918 10.1825 71.5609 58.2424 38.6688 
22810 7 9.52718 17.6319 7.67339 -2.04609 0.93776 -2.01662 
22775 6 10.3724 17.5576 8.1234 -17.9517 -8.96022 6.6314 
22811 7 11.0269 17.744 7.42304 6.07301 1.03025 -1.29411 
20249 3 13.6146 20.1923 8.5115 -17.5636 -15.9059 19.8051 
22799 2 7.50164 15.6895 9.76752 1.32958 21.2884 71.6187 
20181 4 13.1648 15.598 8.7498 -9.6286 -32.1031 -11.9683 
20250 4 13.59 17.8559 9.69511 -13.9026 6.62975 -28.044 
20247 2 13.6446 19.4223 9.89672 2.89654 29.2929 69.5215 
20175 2 13.7411 16.3389 9.95052 44.8502 116.754 90.1578 
20255 5 12.7826 16.0392 11.1348 -2.78372 -11.3509 -16.36 
20251 5 12.5994 19.887 10.8751 -0.706711 -0.325869 9.04601 
22797 1 10.5866 17.8329 10.6706 3.34472 -1.41569 15.0191 
22804 5 8.85928 16.0465 10.2629 -4.50367 -11.1844 -14.3696 
22806 5 9.15709 19.6726 10.6518 26.4428 -12.4943 -11.4161 
20209 6 12.874 15.0323 5.7533 0.479427 -0.36305 1.53529 
20174 8 12.7095 14.4625 7.54514 27.3889 11.0707 -53.9833 
22802 4 7.35344 14.1712 9.46207 -20.8872 9.3703 -29.335 
22707 1 10.7485 14.2517 10.2767 12.2245 10.5415 -8.53221 
20180 3 10.8086 14.0423 7.95232 18.1857 -8.90032 4.9899 
20260 7 13.0324 18.8856 6.99744 0.133647 1.32964 1.23748 
20261 7 12.9162 17.3666 7.33817 -0.52614 10.6131 5.45668 
20401 7 13.4229 15.9899 5.62814 -0.161727 0.312586 -1.28521 
20406 9 10.0189 14.4108 7.4707 -1.26836 2.86209 -2.41059 
20413 7 11.9327 15.1884 5.26927 -0.0684424 -0.0246988 -0.439552 
20222 6 12.7014 18.0477 6.67459 -0.750361 0.714044 -0.937998 
22813 7 7.7456 15.0607 6.62462 -0.0732465 -0.0493479 0.0613493 
22812 7 7.44152 13.8113 7.30537 0.706213 1.4378 6.49825 
17861 7 18.0327 18.1656 5.18632 -0.0414286 -0.0257208 -0.195253 
17849 7 19.1146 19.332 5.5722 -0.0523933 0.152879 -0.565412 
17657 6 18.7692 18.3451 5.88217 -4.86774 -2.68488 15.1442 
20252 5 14.9691 19.7344 10.5394 -8.55143 -13.7398 -18.1966 
20182 5 15.2166 16.0409 10.213 -3.91644 -20.5559 -14.5412 
17622 8 18.5634 18.0799 7.75046 32.1802 27.9843 -14.0224 
17854 9 15.9449 18.6012 8.0719 -0.334763 2.0142 -3.33194 
17628 3 16.7563 18.0742 8.25458 4.14202 -9.96881 9.67071 
17624 4 19.3217 16.6826 8.46567 -7.80719 -11.5785 -3.66474 
17629 4 18.9827 19.4332 8.85904 -13.6315 -12.2088 1.30744 
17621 2 19.6951 15.6526 9.54627 46.3842 95.8306 83.3426 
17623 2 19.5501 20.2671 10.0023 53.4393 24.9735 76.6204 
17630 5 21.0316 19.7719 10.2793 12.4283 -2.4164 -15.7869 
17627 5 21.1919 15.89 9.96206 1.02461 -17.8799 -17.0617 
20155 1 16.8424 17.9752 10.6946 1.56816 10.549 -31.4268 
17626 5 18.7672 15.8963 10.7355 -8.93808 -9.26738 -13.0388 
20171 1 16.7158 14.1373 10.3208 4.79896 6.31298 -42.871 
17625 4 19.606 14.0957 9.12525 -6.07067 7.84638 -11.9972 
17564 7 21.4906 17.2833 7.58657 -0.581194 1.56404 -1.17077 
17703 5 18.6795 20.0258 11.2014 -15.2955 -12.0205 -21.0128 
17709 7 19.905 20.6273 7.34679 2.91179 4.97148 4.37732 
20259 7 15.568 20.8847 8.4035 12.131 3.51534 -2.44612 
17526 6 22.4132 17.452 7.70597 -7.64106 -6.66842 17.6823 
17563 7 22.8092 16.6576 7.3521 0.271076 0.351458 -1.86866 
17619 1 22.5682 17.9268 10.3236 11.048 12.6794 -48.9889 
15250 9 25.4259 16.554 7.3496 3.22521 4.18405 70.4401 
15006 3 25.6058 15.7572 7.92658 -17.3082 -12.1867 55.2476 
15072 4 25.3173 20.4252 8.40544 -12.8789 -8.00146 -2.98739 
15073 4 25.9599 17.9542 9.15621 -15.7574 6.12169 -35.3678 
15069 2 25.8295 19.4844 9.52152 46.8254 196.503 69.3534 
15075 5 27.2671 19.8707 9.91392 4.83876 -4.11499 -14.8882 
15001 2 25.8934 16.4473 9.39988 31.7833 21.9378 33.9708 
15007 5 27.2951 15.9854 9.7832 -0.501871 -10.3859 -15.8504 
14980 1 29.1857 17.8209 10.1444 -13.1603 -20.573 16.6508 
15074 5 24.8028 19.6389 10.6176 -5.85064 -5.0998 -19.2685 
15079 5 24.8396 16.1163 10.4638 8.66667 -3.52598 0.621228 
12533 7 25.4571 18.3754 7.23091 -0.395971 4.46402 6.02304 
17532 1 22.9834 14.1035 10.1761 9.60563 12.1563 9.12318 
14998 1 28.6373 13.9834 10.0874 19.7852 24.5949 13.6291 
12492 6 25.1645 17.9196 6.43544 -1.27163 -1.71748 -0.909272 
12532 7 24.2391 17.8074 6.45162 -0.0705381 0.0115255 -0.231083 
17636 7 24.2982 14.6547 7.77674 3.13778 -4.75207 -4.54705 
17597 6 27.3956 19.7327 6.47718 -16.3436 -1.04743 1.07755 
17635 7 27.0344 19.9354 7.31032 6.30898 1.20955 -2.43922 
17596 6 23.5563 13.9987 7.66239 -11.4052 -1.51128 4.57131 
14974 6 28.7308 14.0837 7.53935 -5.72546 -10.9661 7.21695 
17634 7 26.9707 18.9124 6.11254 0.288351 0.569725 -0.153373 
15084 7 28.6931 18.2675 6.90767 0.59056 2.76711 -1.55525 
15012 7 28.1952 14.867 7.30744 1.77312 1.80762 -1.73188 
15044 6 29.2899 17.8272 7.55162 -18.3754 -15.2807 14.5365 
15011 7 29.5706 14.1102 6.99075 5.05553 0.883907 -0.260328 
25461 9 1.63963 21.1191 8.56579 -0.446353 9.03058 -6.03442 
25417 1 4.459 21.7465 10.9217 -17.2823 -19.8144 -44.1765 
24923 5 0.754769 27.5218 10.9484 6.0523 1.96243 -1.55978 
25425 3 1.35108 22.98 8.77836 -10.4951 -8.34992 18.6961 
24927 5 0.559259 23.61 11.1153 15.596 -1.44675 8.65281 
25426 5 3.10363 23.8017 10.4009 3.60667 -9.4465 -9.13533 
25420 2 1.64879 23.9265 10.0018 35.7366 97.8469 57.6522 
25401 1 4.97038 25.5329 10.7242 12.3931 4.87621 7.43479 
24924 5 3.18735 27.1766 10.4054 -6.08539 -6.00467 -13.6193 
24922 4 1.38256 25.4386 9.75254 -16.4414 10.4858 -16.6362 
24919 2 1.7823 26.9563 9.95451 0.777381 144.055 59.1815 
24921 3 1.55556 27.7248 8.56562 -3.28085 -0.921698 8.26496 
25462 9 1.60156 23.3783 7.96981 -0.0558286 0.118172 1.81518 
22871 5 6.64021 23.6959 10.9095 4.84166 -4.72719 -4.39066 
25451 9 2.36751 27.8615 8.13061 0.0560242 0.481258 1.55932 
22375 5 6.78156 27.3777 11.2762 2.03048 -3.74627 -3.28618 
20355 9 13.7553 21.1037 8.67011 -2.5998 21.2993 -0.797425 
22873 3 7.36095 26.8242 8.94079 -1.71687 -2.82551 22.9988 
22910 9 7.83453 27.1872 8.16884 0.0163489 0.3035 5.19858 
22881 7 10.5673 22.2037 7.78641 0.174126 0.149331 -0.590222 
22880 7 12.0072 21.7432 8.22322 12.0899 4.42061 -4.5182 
22869 3 7.56442 24.0265 8.5961 -0.850111 -1.28516 0.739113 
22842 6 11.0399 21.8185 8.50693 -11.6089 -8.60797 2.36078 
22909 9 7.42422 24.9915 8.72358 -0.305862 9.46953 -0.68204 
22870 4 7.80675 21.6814 9.76784 -9.74016 13.0708 -14.6359 
22781 1 10.8959 21.6885 11.0129 -25.9204 -19.6975 22.9357 
22868 2 7.76545 27.7412 10.1816 37.7505 97.6775 38.0121 
22867 2 7.78902 23.2324 9.92461 53.8308 190.026 71.6846 
22381 7 12.0152 26.341 8.4485 11.1013 9.18751 -1.52807 
20253 3 13.4682 23.4016 8.82795 -29.4387 -27.7731 6.26787 
22380 7 10.8121 26.2531 7.54966 0.0740472 0.106254 0.1007 
22342 6 11.2091 25.8188 8.3988 -19.4484 -2.77187 29.8962 
20317 3 13.3219 27.8427 9.08682 -10.2947 -13.0965 -7.49126 
20248 2 13.7696 24.0294 10.2263 7.56243 3.3802 109.406 
20318 4 13.624 25.5447 10.0164 -29.0138 -19.0786 -43.1069 
20315 2 13.7788 27.0543 10.3348 51.0295 -14.0257 81.3588 
22865 1 10.6865 25.3992 10.9226 12.7573 11.4579 24.7122 
22872 5 9.17462 23.6871 10.462 5.32723 -15.5412 -13.7583 
22874 5 9.24947 27.6706 10.5948 6.74338 -9.6951 -9.92132 
20356 9 12.5954 23.6209 8.49206 10.3288 3.90512 -9.73383 
25431 7 14.1509 26.52 7.83751 1.06917 4.7383 6.78199 
20323 5 12.8525 23.6161 11.429 2.3065 -7.61789 0.881927 
25430 7 14.093 24.9955 7.86813 1.68191 4.74948 10.5571 
25395 6 14.4016 25.7329 7.27378 -0.139376 0.0912555 -0.165336 
20258 7 15.2294 22.3163 8.12146 1.32782 0.12408 -1.43891 
20223 6 16.0015 21.7513 8.2238 -7.21501 -1.22008 9.2311 
20245 1 16.5342 21.695 10.8038 16.5293 20.724 40.7471 
17698 4 19.4354 21.7483 9.56107 -12.063 -3.90277 -28.6297 
20320 5 15.2214 27.4242 10.856 4.61293 -11.2024 -14.6855 
20254 5 15.1801 23.5949 10.561 -15.7274 -11.4455 -20.3134 
20329 7 17.2434 26.6466 8.28058 4.02817 3.2067 -3.62922 
20328 7 16.0419 25.8023 7.61998 1.70568 -0.0158677 -0.0729513 
17803 9 18.6355 24.4714 8.19816 9.13777 9.18973 -0.730752 
20290 6 16.6573 25.8385 8.42977 -27.2194 -4.70833 8.39538 
17697 3 19.4666 23.9299 8.24968 -7.40997 -15.3123 7.99904 
17701 3 18.7572 27.5768 9.07536 -11.5055 -29.4925 -3.5332 
17695 2 19.6311 23.298 9.64847 1.74786 5.59739 77.9355 
17696 2 19.6976 27.9701 10.2409 34.2587 99.97 91.5113 
17700 5 20.9899 23.6351 10.1729 -17.3319 -7.6891 -19.0753 
17702 5 21.0953 27.3466 10.1236 7.86248 -13.2872 -20.6964 
17699 5 18.7076 23.7838 10.7613 -3.32394 -4.41211 -1.30584 
20229 1 17.0048 25.6018 10.9426 17.6802 15.0246 -34.7056 
17708 7 20.0702 22.1005 7.0657 -0.237953 1.39791 0.757451 
17670 6 20.1319 21.2549 6.64674 -0.751113 0.850512 -1.22718 
17707 7 20.7868 25.2363 7.6314 4.6799 4.90058 -0.107042 
17706 7 21.1787 26.5559 8.43819 0.140123 6.45182 6.75763 
17671 6 21.5933 25.7538 7.94146 -0.404671 -4.63667 5.50261 
17804 9 18.1596 28.2261 8.79174 4.32546 -0.353072 -2.99576 
15302 9 22.12 22.0167 7.2663 -10.7623 2.28566 -0.677371 
15082 7 28.9341 21.4367 6.98265 -0.123768 1.91138 -3.08998 
15309 7 26.1711 21.1856 5.56242 -0.0513608 0.3536 -0.581842 
15297 7 25.7773 22.9358 5.36905 0.0248188 0.421587 0.0405532 
15076 3 22.8653 21.7306 7.945 5.11763 -10.3083 6.71217 
15105 6 25.4296 21.9972 5.7434 2.51355 2.81354 8.73634 
15067 1 28.5009 21.8246 10.3102 7.79772 14.5047 31.8046 
17603 1 22.8719 21.8054 10.3091 41.8467 31.3646 63.3117 
15070 8 24.6898 21.8654 7.53391 8.61083 22.0458 -5.75391 
15157 7 24.761 24.7113 6.5409 0.100924 1.42469 -2.1333 
17693 1 22.4585 25.6458 10.3024 35.2701 46.8487 74.1386 
15118 6 24.3516 25.0692 5.80024 0.216068 -0.0169531 -0.0863605 
15156 7 23.4675 25.4068 6.08223 0.348092 0.066168 -0.0126822 
12750 9 28.7793 27.0604 8.02173 -18.148 -1.30035 -3.47743 
15145 3 25.8709 28.1424 8.32624 -25.0851 -10.0689 23.8389 
15077 4 25.2347 23.1977 8.50469 -14.7374 -21.7214 -11.2942 
15146 4 25.5466 25.6818 9.29943 -7.79353 18.0067 -15.4861 
15143 2 25.8227 27.2278 9.63665 33.4084 57.4526 41.7393 
15071 2 25.6377 24.1622 9.58877 42.8447 137.223 69.0304 
15078 5 27.0823 23.775 9.8664 3.60821 -1.50053 -12.1991 
15148 5 27.2019 27.5255 10.2775 11.4421 -13.2208 -15.6245 
15051 1 28.9278 25.6837 10.4438 0.350477 13.0736 45.505 
15147 5 24.7278 27.7419 10.5663 3.91375 -1.68606 -7.77611 
12524 3 29.1596 26.0649 8.01414 -11.3054 -1.31559 8.8614 
15045 6 29.2043 21.7754 7.82857 -18.5887 -10.9975 5.23341 
15251 9 25.5134 27.6474 7.63837 -0.0807372 -0.292482 15.5345 
15151 5 24.6677 23.8201 10.7274 -5.00688 -8.41804 -15.5365 
25272 7 0.511309 4.51793 16.2638 7.25514 -1.97514 8.89216 
25198 5 4.5419 2.55475 12.6561 -16.9636 -9.45157 -10.6317 
25195 5 4.3158 -1.09258 12.7632 -0.447163 -3.66797 3.95919 
25511 9 -0.152927 0.944152 15.9909 -43.4822 4.15693 -2.91515 
22635 1 6.05896 0.692999 12.8525 -9.0073 2.35585 -6.79288 
25268 5 2.06322 2.89899 12.9931 -0.649957 -10.6971 -21.8021 
25258 1 0.250924 4.4912 12.7638 3.30966 0.666025 10.2472 
25207 1 0.476342 0.786529 13.0733 13.2442 36.5174 16.4004 
25191 2 3.47612 3.03985 13.5769 20.9444 28.0622 60.7992 
25263 4 3.57926 4.53329 13.9916 -26.8797 -6.24025 -33.7861 
25197 4 3.26023 2.0922 14.7531 -14.562 -25.8159 -11.3561 
25192 4 3.04502 -0.482259 14.848 -7.59298 -14.7903 -4.35679 
25196 3 0.618468 1.01378 15.2955 -23.1414 -18.3415 1.27553 
25190 8 2.37336 0.892008 15.7904 -99.128 12.4633 -53.753 
25240 6 3.05161 1.07694 17.6042 -4.96798 13.8818 0.712802 
25519 7 3.04666 0.258515 18.2913 -0.304067 15.3768 -7.47415 
25507 7 2.61134 1.94573 18.151 2.11938 6.65337 -15.4473 
22649 6 3.79611 4.47311 16.8646 -14.0412 -10.9616 -25.3374 
25308 6 0.0189436 4.30218 15.4211 -34.3788 -5.35542 29.6278 
25270 6 1.30237 4.71341 17.9169 -38.2934 -0.182301 0.700907 
25310 7 1.46273 5.08542 18.8621 1.49814 22.4715 19.422 
22655 1 6.37544 4.67075 12.8239 -1.81435 7.85701 2.30014 
25194 5 1.89442 -1.62182 13.1754 -0.53361 -14.7985 -17.1046 
25189 2 3.31878 -1.5892 13.8009 43.8297 143.795 89.1403 
25309 7 2.15685 4.31118 17.6371 17.6979 -0.419402 -3.2748 
22683 6 5.99556 0.941563 15.4061 -17.1264 -7.13627 6.89911 
22650 7 5.08791 1.26566 15.5724 -25.6515 1.46451 -6.44858 
22684 7 3.58104 3.78872 16.1949 -1.64459 5.95587 8.96032 
22644 3 6.8914 4.3515 15.2299 20.5525 -14.5377 14.9064 
22651 7 6.28329 0.781579 16.3768 1.59184 1.22541 18.3629 
22759 7 4.76191 4.0542 18.5512 7.76454 2.47143 1.71983 
22959 9 6.29581 4.0492 16.0495 -10.2529 3.84205 -0.0435022 
22685 7 4.12019 5.17424 16.3271 -0.466059 2.00764 5.38342 
20061 7 6.63422 0.404731 18.4072 7.55157 1.92104 1.46658 
15095 3 23.6811 23.4514 19.0848 27.0354 -11.6791 14.9643 
24949 7 0.88347 24.0696 19.3138 7.67449 -1.03756 -0.5815 
22760 7 5.73858 2.87711 18.6925 2.23014 -0.364604 -7.10086 
20023 6 7.20502 0.971919 17.8367 -16.0398 -1.17406 -13.0855 
20022 6 13.2319 3.05522 16.885 2.96623 -0.7668 12.0311 
20062 7 7.94413 0.449559 17.4814 9.06177 -0.317276 0.464477 
20101 7 10.692 0.0663366 17.6642 1.82161 0.661564 0.237055 
22931 9 10.2234 -0.515083 15.6073 15.8005 6.16361 88.26 
22643 5 10.3472 2.57234 12.1955 -2.25538 -4.46599 -8.94002 
20083 1 12.0539 4.57824 12.2941 21.1776 12.4981 25.6306 
22642 5 7.78438 2.32799 12.6693 -2.0447 -7.48211 -21.0175 
22572 5 10.3915 -1.19034 12.4814 1.55277 -6.71423 -4.17039 
22647 5 8.01803 -1.15376 13.3887 15.9796 -11.6514 -15.6553 
20029 1 12.4935 0.818447 12.5759 3.05477 8.386 -8.24198 
20095 5 13.8672 2.81253 13.0198 -6.93939 -12.7994 -15.8804 
22637 2 9.23854 2.21284 13.1776 46.898 180.464 79.479 
22565 2 9.47766 -0.798971 13.6553 48.2625 29.8047 50.5763 
22641 4 9.6135 0.790931 13.697 -20.3233 20.9256 -23.9961 
22640 4 9.10375 3.21619 14.2882 -11.7534 -15.5612 -6.56859 
20060 6 12.6411 0.288648 15.1459 -37.9565 -10.5132 13.0696 
20025 7 13.47 -0.16733 15.1658 0.269513 1.92129 -3.79488 
22638 8 8.74751 4.50331 15.4449 18.4794 31.6131 14.3027 
20024 7 12.7668 1.11387 15.6269 1.71249 4.18025 -3.7359 
22688 6 9.37016 4.55254 17.3103 -8.68982 -2.22775 35.3612 
20130 6 9.79203 -0.0567983 17.3834 -15.1048 -12.426 4.30617 
20016 5 13.8732 -1.10957 13.0216 5.74118 -17.0683 -22.3139 
20100 7 9.54272 -0.705405 18.0523 -3.32168 6.01719 8.97699 
22967 7 9.04784 3.68359 17.878 1.79851 -0.153702 -15.7286 
22571 3 10.1762 -1.25364 14.9671 -18.4476 -26.1422 13.4124 
22955 7 9.04056 5.33134 17.916 1.54361 -4.41452 -17.5942 
20064 7 13.8273 3.06369 17.7336 13.5925 0.19163 14.6786 
20063 7 13.918 2.92057 16.2425 0.249023 1.44406 -9.15526 
20098 7 11.5617 3.36429 18.3695 5.8461 3.07814 10.6131 
20135 7 12.8009 1.29322 18.2592 1.87929 8.32458 3.5776 
20096 6 12.4536 0.634578 18.9325 -21.2714 -17.2035 3.79594 
20371 9 14.7027 28.4715 18.9138 -0.482442 6.01501 10.9336 
22919 9 8.19882 2.21765 19.0648 0.789279 5.99296 -27.3855 
20051 3 14.5169 -1.46556 19.2158 -19.389 -19.1136 47.6187 
20131 6 11.343 3.73515 19.3095 -21.2898 -8.13411 16.6141 
17503 6 16.8193 0.25323 18.9442 -23.7083 -7.00675 4.99102 
20367 9 14.0008 5.19457 18.6869 -0.953525 -0.252506 -21.1071 
17456 7 16.59 1.14715 18.613 4.12546 3.79866 -2.81006 
25379 7 -0.271228 15.6094 18.1436 3.41597 0.117474 -2.59717 
20379 9 16.1146 1.65941 15.1774 8.81158 14.6798 3.14205 
20378 9 15.4007 0.0444891 14.8487 0.804575 51.8397 35.6314 
20012 2 15.2359 -1.61828 13.5115 16.3234 -114.776 73.7704 
17469 5 19.9364 -1.30131 13.4326 4.66572 -10.8947 -9.07616 
20017 5 16.2815 -1.21496 12.5395 13.2779 -1.0362 0.0624453 
20020 5 16.2894 2.4578 12.6312 -5.87328 -5.86489 -9.55501 
17477 1 18.4308 4.50707 12.7514 35.6543 26.7526 53.5547 
17458 1 18.218 0.637135 12.871 38.1783 28.511 4.75359 
17464 5 19.9587 2.61017 13.0923 2.11213 -12.6403 -16.514 
20014 3 15.3481 -0.927596 14.9324 -22.1509 -11.361 32.5662 
20013 2 15.2355 2.86552 13.6686 24.5225 -29.4668 55.0986 
20089 4 15.4847 4.41259 13.8828 -14.1672 4.72735 -19.52 
17460 2 21.2934 2.30374 13.8302 57.974 182.079 81.1193 
17386 2 21.2555 -0.760946 14.0881 53.5193 146.614 42.2886 
20019 3 15.1999 1.94502 14.9203 -22.9348 -10.2771 8.14863 
17466 6 17.6328 0.500813 15.1813 -39.8059 -12.2194 -3.30914 
17494 7 17.1048 -0.25509 15.5547 8.25357 6.04114 -5.98744 
17493 7 18.0409 0.986416 15.9414 5.98523 7.88367 0.842285 
17471 6 18.9505 2.38056 17.069 -16.7553 -12.5135 -12.8838 
17510 7 19.7867 2.50379 16.6027 5.35883 0.669656 4.47592 
17509 7 19.2144 1.79739 17.7787 6.6341 0.876193 2.75475 
17463 4 21.2166 0.803669 14.1626 -9.71662 24.7639 -24.0059 
17508 6 18.5085 4.41267 15.2547 -6.21397 -1.43002 5.81249 
17473 7 18.3839 3.64524 15.9504 2.71373 18.163 7.73979 
14959 7 21.1121 0.691917 17.9759 -5.17046 12.7454 6.41094 
14960 7 21.4188 1.24708 16.6663 -5.71343 5.09227 -3.48602 
17391 3 21.5422 -1.46399 15.4376 -15.3339 -32.2569 19.1475 
17825 9 21.4574 -0.808469 16.1631 -2.40529 6.28832 91.3393 
17462 3 21.1932 3.18881 15.1423 -27.6965 -32.0525 23.5484 
14918 6 21.7069 0.540308 17.237 -6.62236 -30.0202 -16.3763 
17583 7 17.738 4.13661 17.8988 6.74611 6.96041 4.81955 
17826 9 21.5265 4.00672 15.0296 -2.00945 11.3292 11.1294 
17544 6 17.4088 4.6155 18.7391 -21.5634 -2.03805 10.6666 
17582 7 16.9496 5.41048 18.3446 4.78816 3.68754 -2.25485 
17472 7 19.5 4.63681 15.2373 14.1359 5.46532 -5.99639 
17499 3 20.816 2.32716 19.1688 -21.3445 -26.9395 -23.2365 
20366 9 15.7661 3.58059 19.1825 17.186 9.24414 13.9629 
17457 7 16.0209 -0.216428 19.0334 4.2468 5.41387 -1.58696 
15272 9 27.3443 -1.78877 15.8815 1.80452 8.17437 -47.1842 
14904 7 22.3845 4.9903 18.5453 0.937012 -3.6034 -6.89546 
12370 7 29.2625 5.45126 15.7072 13.8138 6.24078 -5.50545 
12752 9 29.4142 4.29653 18.5801 -14.0485 3.1139 -5.55074 
17392 5 22.3788 -1.113 13.0479 14.7878 -0.827225 9.6891 
14833 2 27.436 -1.7351 13.7653 11.3397 121.053 79.3098 
14837 5 26.0685 -1.25524 13.3193 -13.8774 -13.527 -16.5031 
14835 3 27.7071 -1.16502 15.1864 -10.6698 -33.4118 -23.172 