ITEM: TIMESTEP
140000
ITEM: NUMBER OF ATOMS
25520
ITEM: BOX BOUNDS pp pp ff
-3.8959205201285124e-01 6.0088135642019459e+01
-1.9452389155355383e+00 5.9115524189537531e+01
-1.2206056431032383e+01 1.1390111600702880e+02
ITEM: ATOMS id type x y z v_stressx v_stressy v_stressz 
25292 7 5.89857 3.03966 7.5916 -2.44347 -8.52036 -6.2123 
25293 7 5.98077 1.53035 7.7064 -1.88664 -5.90511 -1.96331 
25252 6 5.35811 2.25094 7.51796 -6.36011 -3.24231 0.20576 
25287 5 0.61597 0.755495 10.7564 7.73164 -1.74062 4.76809 
25283 5 2.94291 4.2301 9.842 11.3362 6.66357 -12.9036 
25281 4 1.3887 2.44216 9.07367 -13.2955 2.05912 -16.8239 
25280 4 1.07853 5.00258 8.46007 -12.7373 -8.44259 -6.85477 
25277 2 1.45655 3.94107 9.49571 51.29 38.4364 80.211 
25215 5 2.99957 0.588718 9.72621 -14.3881 -9.94842 -11.5887 
25209 2 1.59287 0.935181 9.44522 6.34277 -57.1373 73.4273 
25188 1 4.8243 2.58953 9.97468 5.21595 1.21701 14.273 
25214 3 0.796635 0.0137284 8.44439 -2.01035 -4.27684 2.25387 
25282 5 0.520916 4.37471 10.6565 -15.2674 -14.3444 -18.5594 
25458 9 1.40812 -0.435335 7.83607 0.0209241 2.06349 1.68499 
25206 1 4.52732 -1.17961 10.115 34.561 37.9102 20.2672 
22660 5 6.52822 0.875659 10.2203 -1.52944 -5.74414 -17.1483 
22735 5 6.623 4.87348 10.5536 2.49765 -9.15957 -14.9547 
25505 7 1.83983 5.65447 5.50835 -0.0553037 -0.158357 -0.297005 
22662 3 7.17647 4.29529 8.22411 -12.0356 -23.0448 -18.1057 
22658 3 7.30314 0.346889 7.89736 -15.0059 -15.2524 -11.0531 
22905 9 7.65252 -0.485879 7.46068 0.0228861 -0.413859 -4.49996 
22906 9 7.50322 4.57024 7.35908 -2.74664 4.30054 9.68189 
20115 7 11.1372 2.292 6.49758 0.443096 -0.00813949 -1.17237 
22656 2 7.7059 0.365729 9.40584 22.1151 73.9061 63.2928 
20116 7 12.1136 2.88755 7.40659 19.6324 6.66294 2.32117 
20078 6 11.1398 2.86581 7.23657 -15.8982 -11.5725 2.25188 
20106 3 13.741 4.72985 7.46261 -15.6353 -11.0057 42.634 
22657 2 7.60419 5.1024 9.41016 53.6944 -16.0687 20.6171 
20036 3 13.619 0.47741 7.57109 -16.4194 -19.4458 17.3234 
20107 4 13.6664 2.6833 8.8298 -17.7432 -14.0208 -33.1975 
20104 2 13.8784 4.18168 8.97251 30.9372 35.8589 93.003 
20031 2 13.7132 1.1448 8.96008 62.0878 163.88 13.2823 
20108 5 12.6966 4.70757 9.81807 14.7609 12.0547 1.17699 
20112 5 12.4932 0.846951 9.91178 11.0261 -0.358338 5.21029 
22654 1 10.4859 2.78478 9.68506 11.4606 10.3208 12.0804 
22661 5 9.03983 1.11007 9.56315 -7.51172 -6.51353 -16.6372 
22663 5 9.10858 4.7108 9.73761 4.39181 -12.7905 -15.3904 
22563 1 10.886 -1.13469 10.1589 -0.457678 -0.769229 -14.5382 
22659 4 7.7627 -1.12896 9.68153 -9.33185 -34.8862 -35.6675 
22629 6 11.3751 -1.065 7.76545 -16.7808 5.06705 2.69791 
22669 7 11.9249 -0.207968 7.44815 1.29754 5.209 -1.36209 
20352 9 13.8605 1.22514 6.87465 0.6981 12.5204 14.5607 
20189 7 14.2777 3.18994 6.51456 0.279932 13.5136 8.36652 
20353 9 14.543 5.23857 7.22704 7.72936 13.2111 16.7877 
20148 6 14.5671 2.45013 5.87332 0.144396 0.057738 0.0971701 
22740 7 11.2703 5.5881 6.8279 3.27713 1.4788 -1.20156 
22738 7 8.76742 5.41578 5.90114 -0.696799 0.693953 -1.33865 
22701 6 7.85394 5.37142 5.69312 0.507682 -0.286905 7.82692 
22739 7 7.886 4.86164 4.87022 -0.0112751 0.0201832 0.00870565 
22670 7 11.9327 -1.89861 7.72342 1.04599 1.64668 -5.3281 
20188 7 15.4435 2.20345 6.22553 0.815684 -0.13857 0.0771251 
20037 5 15.0057 0.565552 9.66218 -0.959552 -6.95538 -13.0919 
20118 7 17.8719 2.63796 7.70159 5.65934 -0.370429 -2.95354 
20117 7 17.6995 1.17882 7.44002 3.02263 2.50974 -4.78369 
17799 9 19.455 -0.241526 7.33338 0.330262 6.56273 17.8875 
20077 6 17.1284 2.01775 7.60787 -23.1723 2.56947 27.1105 
17484 3 19.536 4.02271 8.03155 -4.18244 -2.54801 -2.40745 
20109 5 15.1822 4.68195 9.53593 -5.77655 -7.23044 -17.5597 
17480 3 19.3808 0.510653 7.95906 -16.426 -31.7433 11.2448 
17478 2 19.7385 0.13463 9.405 32.3371 34.5054 47.4783 
17479 2 19.7269 4.90401 9.32133 46.2043 113.172 61.0187 
17485 5 21.0972 4.45706 9.83859 4.81323 -15.9463 -17.003 
17483 5 21.125 0.57616 9.92672 5.10816 -10.0751 -13.1868 
17482 5 18.7273 0.612358 10.4453 1.3115 -3.71782 -5.84226 
17560 5 18.5746 4.39351 10.2378 -1.0001 1.58955 -11.5181 
20011 1 16.7883 2.43064 10.1919 50.4172 45.9644 50.0443 
20028 1 16.5417 -1.33752 10.1131 23.7955 17.0429 10.2849 
17481 4 19.613 -1.37684 9.30614 -12.1362 -19.4233 -37.7187 
17800 9 20.2785 3.41394 7.96437 0.301678 -2.89924 -5.46995 
20002 6 16.2002 -1.21507 7.53432 -10.3524 -7.51321 13.9148 
20044 7 15.5857 -0.449442 7.68688 4.3057 8.55591 -3.09413 
20043 7 16.3516 -1.12082 6.60323 0.281997 0.200836 -0.848925 
17377 6 19.8786 -1.6773 6.3322 0.247545 -0.138677 -0.00807186 
17415 7 20.5742 -1.92657 6.98281 2.86045 2.48535 2.0436 
14864 7 23.6314 3.83266 7.75133 5.57794 -4.69176 -1.43681 
14825 6 23.2988 2.969 7.82153 -9.26499 -3.81237 1.38304 
14863 7 24.1611 2.53617 7.90018 3.86516 -1.32301 -0.554327 
17476 1 22.5994 2.5974 10.2549 -65.397 -41.2715 55.8114 
14928 3 25.5679 4.59148 8.20809 -31.3572 -49.9428 -46.8792 
15246 9 24.7065 0.00657495 8.04332 7.92353 10.7467 19.7948 
14856 3 25.5405 0.383335 8.16649 -12.5295 -14.7492 10.9187 
14929 4 25.6618 2.47021 9.27814 -17.517 -34.9435 -33.4846 
14851 2 25.7726 0.935136 9.6021 18.848 -190.197 74.8032 
14926 2 25.8313 3.99121 9.61155 28.1254 145.325 87.0766 
14857 5 27.172 0.513951 10.0212 -9.51609 -11.7528 -21.0016 
14931 5 27.2703 4.30837 10.1061 -28.3104 -11.3967 -17.41 
14832 1 28.9014 2.41808 10.4207 15.7082 12.1848 56.4254 
14930 5 24.8007 4.37565 10.6576 12.922 -4.35954 -12.7635 
14934 5 24.7275 0.511689 10.6576 4.56789 -4.11459 -1.5269 
17384 1 22.8636 -1.16741 10.5973 -1.26847 4.28946 -8.55015 
14848 1 28.7231 -1.43222 10.2624 14.7131 19.021 -6.19544 
14898 6 29.1786 2.45721 7.88738 -13.5963 -15.3278 6.36134 
15247 9 26.3681 4.66526 7.72718 -1.61476 -1.09434 -15.3085 
14826 6 28.1456 -1.3901 7.71182 1.28032 -3.32996 26.7275 
14861 7 27.5228 -0.59177 7.7367 5.01015 5.83983 -2.25993 
14862 7 28.7608 -1.17174 6.9734 0.154936 0.0372919 -0.0637476 
17565 7 23.8543 5.62398 7.62904 12.506 3.73057 -1.62692 
17491 7 23.3409 -0.830267 7.25909 0.0940781 0.0693712 -0.467732 
12347 6 29.4782 5.3719 8.00631 -15.166 -7.09613 4.40957 
14939 7 29.2544 3.33895 7.63004 0.439044 -0.927912 -1.22625 
17492 7 24.1978 -1.77871 8.08715 8.13793 2.37632 -6.54049 
17450 6 23.2929 -1.42611 8.02021 -21.3787 -6.78799 19.9439 
25291 7 5.22591 6.53661 7.32751 1.17542 1.66314 -3.11164 
25290 7 3.82687 6.55555 6.86919 -0.684621 1.66941 -4.41791 
25253 6 4.33607 6.71227 7.63615 -9.60295 -11.7347 1.63495 
25517 7 1.84279 7.29014 5.50902 -0.0266697 -0.0526459 -0.556871 
25313 6 1.21101 6.45671 5.78137 6.10009 -5.57125 30.5068 
25362 7 1.19888 10.608 6.31952 -0.0160649 -0.00431419 -0.0259006 
25275 1 4.36027 6.50413 10.1833 4.11256 12.9297 7.68551 
25278 8 0.639374 6.49188 7.63496 52.6847 32.4511 9.45734 
22958 9 3.89074 10.3239 7.2783 -3.46723 1.50547 0.293929 
22732 3 4.70032 10.3548 7.96195 2.3813 -12.6543 13.427 
25359 5 0.701437 8.49354 11.0939 -10.1694 -10.3813 -17.3282 
25356 5 3.08021 12.146 10.2169 9.95635 0.131655 -12.7646 
25355 5 0.535314 12.2845 10.6518 -2.62337 -5.32224 -7.89396 
25354 4 1.48185 10.2856 9.54639 -13.7511 13.9377 -27.1136 
25353 3 1.39194 12.6945 8.41831 -12.7069 -8.18547 3.31407 
25351 2 1.63225 11.8296 9.72046 39.9594 47.2617 65.7739 
25286 5 2.93236 8.28049 10.0288 -5.52561 -16.1348 -19.3285 
25285 4 0.892127 7.85648 8.74192 -20.7663 -18.8703 -5.18456 
25279 2 1.49492 8.71367 9.83417 16.1227 99.1902 79.7893 
25259 1 4.86194 10.2149 10.3927 7.08489 8.95851 47.0588 
25327 6 1.60703 9.7444 6.34125 2.35768 1.27793 -0.677263 
25363 7 1.38635 9.50649 7.2315 0.461105 2.80651 1.31406 
22807 5 6.5607 12.2849 10.8694 -15.5511 -14.6003 -17.7961 
22730 5 6.65234 8.34528 10.5398 -4.54583 -14.6233 -12.9955 
22726 8 6.48614 10.4372 7.49213 -1.64109 17.8921 -25.7969 
22761 6 7.05704 10.8316 5.66761 1.75711 2.51609 6.8459 
22733 4 6.9844 11.7221 8.61372 -10.8865 -12.7022 -2.53323 
15095 3 24.2344 23.5271 19.3798 -6.04217 -12.3893 0.818906 
22728 4 7.23016 9.05362 8.29312 -12.8051 -20.229 -5.80389 
22953 7 7.91026 10.1976 5.3838 -0.066709 0.0999079 -0.652551 
22965 7 7.33207 11.8331 5.45166 -0.0483361 0.141532 -0.277054 
22741 7 11.5 7.01103 7.05421 2.60116 -0.0328321 -1.56262 
22700 6 10.8104 6.36788 7.23855 -15.999 -2.07268 18.5844 
22636 1 10.9188 6.69179 9.82281 4.63174 9.36549 12.4023 
22729 4 7.48133 6.61374 9.11192 -11.1153 -8.50909 -27.2282 
22668 7 10.5831 8.59932 7.42923 1.89153 4.35078 -3.22643 
22725 2 7.70374 8.13304 9.39568 26.7281 31.5583 96.2242 
22727 2 7.53968 12.6129 9.75953 16.6896 132.865 80.6724 
22630 6 10.7174 9.56513 7.55044 -8.17698 0.744768 5.42874 
22667 7 11.6785 9.56 7.58776 1.26973 0.729021 -1.34727 
20110 3 13.3722 8.00482 7.87861 -10.8965 -1.15425 -3.58817 
20176 4 13.3404 12.979 8.33811 -6.53315 -6.94831 -4.11846 
20177 4 13.5478 10.5013 8.95979 -6.05127 -0.283916 -16.1143 
20173 2 13.7057 11.9908 9.40771 32.4381 -5.33193 77.2053 
20105 2 13.7244 8.93675 9.12343 -2.60584 6.66663 85.522 
20178 5 12.5598 12.2564 10.4158 -7.56154 -12.345 -22.5242 
20183 5 12.8988 8.51128 10.3587 -3.50517 -11.013 -8.28292 
22734 5 8.97942 12.4092 10.1072 -12.4702 -12.4595 -17.6717 
22723 1 10.5486 10.4168 9.97488 -2.85215 4.20575 9.78973 
22731 5 9.11607 8.33188 9.85191 -15.6419 -24.2269 -22.1961 
20354 9 13.8366 7.1662 8.02076 -1.18438 -12.2818 -25.4759 
17489 7 15.3685 7.53149 7.27379 -6.22641 -2.27417 -3.80236 
17490 7 16.4114 7.08597 6.51817 -0.225615 0.0333774 -0.313135 
17451 6 15.9423 6.78743 7.29642 -18.6723 -17.2334 17.5508 
17555 4 19.5148 6.40419 9.24816 -10.6389 2.50805 -18.8109 
20102 1 16.4765 6.46221 9.86905 10.8523 -0.0230357 19.0837 
20179 5 15.0791 12.3713 9.86379 2.73737 3.89547 -11.9021 
20111 5 15.0953 8.51182 9.52882 -26.1529 -13.9303 -15.1452 
17802 9 19.4832 11.878 7.51898 -0.108668 -0.0985959 0.164316 
17554 3 19.6317 8.68088 7.9737 -1.85779 -5.30108 6.0885 
17801 9 19.3812 9.57046 8.10065 0.627053 12.1471 6.40639 
17558 3 19.3121 11.5602 8.35726 -4.14109 -2.06356 -0.931682 
17552 2 19.7279 7.97853 9.40881 24.4112 57.4991 61.9029 
17553 2 19.7446 12.5897 9.5152 41.6952 42.5315 70.2232 
17559 5 21.2085 12.1329 9.83297 6.83921 -0.476785 -11.3976 
17557 5 21.1128 8.33065 9.93016 1.13568 -11.4656 -15.912 
17556 5 18.49 8.44005 10.194 12.6707 -3.7078 -6.34889 
17631 5 18.754 12.2185 10.6826 1.95853 -5.32229 -2.55195 
20084 1 16.8199 10.2664 10.3615 -11.8311 -4.81264 -0.0440595 
17566 7 22.7737 6.49197 7.09029 0.0936402 0.0180321 0.0495662 
17525 6 23.2369 6.30614 7.97014 -29.8527 -5.92948 17.5007 
15249 9 26.4199 12.3989 7.50271 0.844979 0.687631 0.257061 
14924 1 28.8784 6.30371 10.2599 24.4995 20.3767 -5.47297 
17459 1 22.8153 6.36449 10.4136 -82.9608 -68.1639 43.5742 
17550 1 22.6813 10.1773 10.109 18.8483 17.6009 8.75756 
15248 9 25.0074 7.30471 8.25379 6.73065 8.84437 8.69484 
15002 3 25.5553 12.1132 7.86039 -4.79457 -8.82326 8.82679 
14932 3 25.8534 7.69566 8.37038 -4.66792 -4.15788 1.36707 
15003 4 25.6929 10.0578 9.40228 -9.1627 -5.82154 -24.0496 
15000 2 25.8234 11.5586 9.33827 29.5154 102.752 75.8472 
14927 2 25.9265 8.52626 9.67582 39.851 66.1778 74.9182 
15005 5 27.2586 12.0307 9.65026 -1.57235 -12.7966 -17.5455 
14933 5 27.3368 8.19806 10.2714 9.55525 -13.8258 -17.605 
15004 5 24.794 12.1885 10.2281 1.18926 3.22998 -12.6691 
14907 1 29.0423 10.186 10.3202 23.5981 18.4286 22.6951 
15008 5 24.7476 8.17989 10.6591 15.4944 -0.209614 -2.03675 
14899 6 29.4402 9.94521 7.67407 -3.20733 0.0252236 5.32565 
17637 7 24.0129 13.1402 7.48134 1.60789 0.649512 -0.199199 
25427 5 0.471403 16.2254 10.9577 6.21047 -3.38424 -5.39215 
25424 5 3.05777 19.7432 10.2643 -14.9771 -6.35711 -9.62531 
25423 5 0.62854 19.9386 10.7649 4.13399 -4.13243 -9.75485 
25422 4 1.53223 17.8586 9.5283 -9.77036 7.10274 -14.3673 
25421 3 1.35286 20.1653 8.46116 -3.24301 -2.57797 -0.0919573 
25419 2 1.68921 19.4163 9.80763 -40.9264 139.977 65.3664 
25358 5 3.0433 15.9649 10.3935 6.02256 -1.09655 -11.502 
25352 2 1.62447 16.359 9.9389 56.8434 1.72453 37.2416 
25333 1 4.76049 17.9652 10.8964 -4.87226 13.5121 -10.218 
25357 3 1.27516 15.4524 8.77037 -12.0301 -17.0406 19.2826 
25460 9 1.6173 15.8283 7.87293 0.0972536 0.364806 4.20885 
25349 1 4.58657 14.1062 10.6957 7.02137 16.3314 -7.24709 
22803 5 6.49129 16.0975 10.8756 1.55236 -0.317012 0.265827 
22875 5 6.46084 20.071 11.1158 20.1763 8.28175 8.01571 
25459 9 1.48999 13.6574 8.56205 -1.70183 4.59529 -4.12946 
22801 3 7.03055 16.5942 8.55987 -2.17463 -6.95283 4.3341 
2179 7 -0.387305 20.8468 8.22815 14.4366 2.19668 -6.33496 
22805 3 7.32975 19.3599 8.91011 -8.50059 -8.53086 26.4411 
22908 9 7.54595 19.9046 8.12021 0.00868453 0.258878 6.53363 
22774 6 7.84223 14.1301 6.46407 2.03777 1.29807 1.96169 
22907 9 7.21638 17.5067 8.66763 -0.100232 20.2441 1.60873 
22800 2 7.69826 20.1918 10.1825 72.3166 57.0033 36.5703 
22810 7 9.52718 17.6319 7.67339 -2.03407 0.939523 -2.02749 
22775 6 10.3724 17.5576 8.1234 -18.1554 -8.97611 6.52804 
22811 7 11.0269 17.744 7.42304 6.09227 1.03292 -1.21818 
20249 3 13.6146 20.1923 8.5115 -17.5281 -15.8982 19.214 
22799 2 7.50164 15.6895 9.76752 1.44414 21.0963 72.1723 
20181 4 13.1648 15.598 8.7498 -9.45596 -32.1019 -11.6202 
20250 4 13.59 17.8559 9.69511 -13.4875 6.75652 -27 
20247 2 13.6446 19.4223 9.89672 2.5363 28.7629 67.0136 
20175 2 13.7411 16.3389 9.95052 43.3655 117.276 87.839 
20255 5 12.7826 16.0392 11.1348 -2.41556 -11.591 -16.1054 
20251 5 12.5994 19.887 10.8751 -0.406923 -0.0379155 6.54189 
22797 1 10.5866 17.8329 10.6706 3.63337 -1.29916 28.9952 
22804 5 8.85928 16.0465 10.2629 -4.68598 -11.1455 -14.7132 
22806 5 9.15709 19.6726 10.6518 26.384 -12.3601 -11.3147 
20209 6 12.874 15.0323 5.7533 0.477281 -0.35587 1.51824 
20174 8 12.7095 14.4625 7.54514 27.3752 10.9495 -53.6982 
22802 4 7.35344 14.1712 9.46207 -20.9339 9.26685 -29.1918 
22707 1 10.7485 14.2517 10.2767 12.3679 10.5088 -5.08559 
20180 3 10.8086 14.0423 7.95232 18.1741 -8.82498 4.93815 
20260 7 13.0324 18.8856 6.99744 0.135002 1.32811 1.27606 
20261 7 12.9162 17.3666 7.33817 -0.516916 10.6047 5.69007 
20401 7 13.4229 15.9899 5.62814 -0.161421 0.311038 -1.28247 
20406 9 10.0189 14.4108 7.4707 -1.26691 2.83537 -2.44995 
20413 7 11.9327 15.1884 5.26927 -0.0685129 -0.0248756 -0.439508 
20222 6 12.7014 18.0477 6.67459 -0.753992 0.720591 -0.989235 
22813 7 7.7456 15.0607 6.62462 -0.0716221 -0.0498257 0.0599918 
22812 7 7.44152 13.8113 7.30537 0.733094 1.42155 6.43959 
17861 7 18.0327 18.1656 5.18632 -0.0415667 -0.0257194 -0.194928 
17849 7 19.1146 19.332 5.5722 -0.0528683 0.152625 -0.563375 
17657 6 18.7692 18.3451 5.88217 -4.85424 -2.66942 15.0568 
20252 5 14.9691 19.7344 10.5394 -8.1809 -13.469 -17.7077 
20182 5 15.2166 16.0409 10.213 -3.93699 -20.7781 -14.2275 
17622 8 18.5634 18.0799 7.75046 32.2967 27.7299 -15.0185 
17854 9 15.9449 18.6012 8.0719 -0.333494 1.98756 -3.36082 
17628 3 16.7563 18.0742 8.25458 4.16584 -9.89279 9.90571 
17624 4 19.3217 16.6826 8.46567 -7.75053 -11.5812 -3.5475 
17629 4 18.9827 19.4332 8.85904 -13.6513 -11.96 1.7356 
17621 2 19.6951 15.6526 9.54627 45.7255 95.3312 85.3826 
17623 2 19.5501 20.2671 10.0023 53.0979 24.1457 76.0632 
17630 5 21.0316 19.7719 10.2793 12.5224 -2.35506 -15.5071 
17627 5 21.1919 15.89 9.96206 1.07474 -17.8654 -17.6369 
20155 1 16.8424 17.9752 10.6946 1.8517 10.8164 -30.2861 
17626 5 18.7672 15.8963 10.7355 -8.51813 -9.04829 -13.1313 
20171 1 16.7158 14.1373 10.3208 5.14563 6.07782 -4.49293 
17625 4 19.606 14.0957 9.12525 -5.94714 7.82338 -12.26 
17564 7 21.4906 17.2833 7.58657 -0.588222 1.54373 -1.33312 
17703 5 18.6795 20.0258 11.2014 -15.1503 -12.0044 -21.6988 
17709 7 19.905 20.6273 7.34679 2.90551 4.95994 4.32028 
20259 7 15.568 20.8847 8.4035 12.1706 3.52236 -2.32154 
17526 6 22.4132 17.452 7.70597 -7.61019 -6.55365 18.4234 
17563 7 22.8092 16.6576 7.3521 0.260749 0.337175 -2.02161 
17619 1 22.5682 17.9268 10.3236 11.3469 12.7571 -10.5966 
15250 9 25.4259 16.554 7.3496 3.22384 4.1538 70.3052 
15006 3 25.6058 15.7572 7.92658 -17.155 -12.1363 55.7241 
15072 4 25.3173 20.4252 8.40544 -12.9188 -7.9074 -2.73386 
15073 4 25.9599 17.9542 9.15621 -15.503 6.08953 -34.7541 
15069 2 25.8295 19.4844 9.52152 46.0638 196.39 66.5454 
15075 5 27.2671 19.8707 9.91392 5.10681 -4.20871 -14.5944 
15001 2 25.8934 16.4473 9.39988 30.7392 21.7546 34.3372 
15007 5 27.2951 15.9854 9.7832 -0.501448 -10.407 -16.2823 
14980 1 29.1857 17.8209 10.1444 -13.0787 -20.9646 16.4193 
15074 5 24.8028 19.6389 10.6176 -5.82757 -5.25856 -19.6606 
15079 5 24.8396 16.1163 10.4638 8.70631 -3.32931 -0.04755 
12533 7 25.4571 18.3754 7.23091 -0.391758 4.41848 5.86342 
17532 1 22.9834 14.1035 10.1761 9.81033 12.0963 9.78687 
14998 1 28.6373 13.9834 10.0874 20.0178 24.8431 13.3698 
12492 6 25.1645 17.9196 6.43544 -1.27045 -1.70755 -0.918123 
12532 7 24.2391 17.8074 6.45162 -0.0707147 0.00959691 -0.232731 
17636 7 24.2982 14.6547 7.77674 3.12954 -4.71575 -4.60771 
17597 6 27.3956 19.7327 6.47718 -16.3326 -1.05638 1.07877 
17635 7 27.0344 19.9354 7.31032 6.33879 1.2296 -2.396 
17596 6 23.5563 13.9987 7.66239 -11.4009 -1.58131 4.68261 
14974 6 28.7308 14.0837 7.53935 -5.67005 -10.8372 7.75973 
17634 7 26.9707 18.9124 6.11254 0.287925 0.569029 -0.151488 
15084 7 28.6931 18.2675 6.90767 0.591541 2.77477 -1.5516 
15012 7 28.1952 14.867 7.30744 1.77246 1.79045 -1.79239 
15044 6 29.2899 17.8272 7.55162 -18.4141 -15.3342 14.7887 
15011 7 29.5706 14.1102 6.99075 5.04469 0.868007 -0.30861 
25461 9 1.63963 21.1191 8.56579 -0.420311 9.01535 -6.03755 
25417 1 4.459 21.7465 10.9217 -16.8363 -19.8832 -13.6331 
24923 5 0.754769 27.5218 10.9484 6.05135 1.97828 -1.98964 
25425 3 1.35108 22.98 8.77836 -10.6368 -8.13307 18.6435 
24927 5 0.559259 23.61 11.1153 15.5471 -1.70639 8.0678 
25426 5 3.10363 23.8017 10.4009 3.75224 -9.52525 -9.42579 
25420 2 1.64879 23.9265 10.0018 35.0814 98.0711 57.9511 
25401 1 4.97038 25.5329 10.7242 12.5749 4.91067 10.5185 
24924 5 3.18735 27.1766 10.4054 -6.04318 -5.94015 -13.8214 
24922 4 1.38256 25.4386 9.75254 -16.3203 10.3896 -16.9233 
24919 2 1.7823 26.9563 9.95451 0.242383 143.936 60.7826 
24921 3 1.55556 27.7248 8.56562 -3.23205 -0.905348 8.30299 
25462 9 1.60156 23.3783 7.96981 -0.0547181 0.116002 1.81334 
22871 5 6.64021 23.6959 10.9095 4.5626 -4.7903 -5.27516 
25451 9 2.36751 27.8615 8.13061 0.0520072 0.479664 1.5514 
22375 5 6.78156 27.3777 11.2762 2.05393 -3.74076 -3.84669 
20355 9 13.7553 21.1037 8.67011 -2.60086 21.3357 -0.540655 
22873 3 7.36095 26.8242 8.94079 -1.72249 -2.86593 22.5104 
22910 9 7.83453 27.1872 8.16884 0.0162357 0.300795 5.20046 
22881 7 10.5673 22.2037 7.78641 0.174332 0.147624 -0.584407 
22880 7 12.0072 21.7432 8.22322 12.06 4.42577 -4.42406 
22869 3 7.56442 24.0265 8.5961 -0.84994 -1.29798 0.778909 
22842 6 11.0399 21.8185 8.50693 -11.4806 -8.55215 2.29717 
22909 9 7.42422 24.9915 8.72358 -0.30534 9.48979 -0.679563 
22870 4 7.80675 21.6814 9.76784 -10.0213 13.165 -14.3942 
22781 1 10.8959 21.6885 11.0129 -25.2845 -19.6888 26.7777 
22868 2 7.76545 27.7412 10.1816 37.6231 97.1769 40.5888 
22867 2 7.78902 23.2324 9.92461 54.8071 190.047 73.1274 
22381 7 12.0152 26.341 8.4485 11.0289 9.14085 -1.40238 
20253 3 13.4682 23.4016 8.82795 -29.2812 -27.8489 6.02443 
22380 7 10.8121 26.2531 7.54966 0.0737122 0.105347 0.0992961 
22342 6 11.2091 25.8188 8.3988 -19.3112 -2.63763 29.8221 
20317 3 13.3219 27.8427 9.08682 -10.147 -13.1822 -8.43295 
20248 2 13.7696 24.0294 10.2263 7.31269 4.06813 108.646 
20318 4 13.624 25.5447 10.0164 -28.8567 -18.8005 -43.1218 
20315 2 13.7788 27.0543 10.3348 50.7435 -14.4566 82.2568 
22865 1 10.6865 25.3992 10.9226 12.0265 11.2302 13.3863 
22872 5 9.17462 23.6871 10.462 5.33481 -15.597 -14.0649 
22874 5 9.24947 27.6706 10.5948 6.81376 -9.65806 -10.3249 
20356 9 12.5954 23.6209 8.49206 10.2669 3.88739 -9.72114 
25431 7 14.1509 26.52 7.83751 1.07439 4.71515 6.84133 
20323 5 12.8525 23.6161 11.429 2.41332 -7.76174 2.27665 
25430 7 14.093 24.9955 7.86813 1.68604 4.68683 10.6551 
25395 6 14.4016 25.7329 7.27378 -0.139112 0.0933393 -0.164795 
20258 7 15.2294 22.3163 8.12146 1.33513 0.132218 -1.39494 
20223 6 16.0015 21.7513 8.2238 -7.25958 -1.25828 9.11777 
20245 1 16.5342 21.695 10.8038 16.7306 20.4575 30.2923 
17698 4 19.4354 21.7483 9.56107 -11.93 -3.85581 -28.6161 
20320 5 15.2214 27.4242 10.856 4.66617 -11.2101 -14.6702 
20254 5 15.1801 23.5949 10.561 -15.8453 -11.6355 -20.3785 
20329 7 17.2434 26.6466 8.28058 4.02207 3.17681 -3.61115 
20328 7 16.0419 25.8023 7.61998 1.70276 -0.0252482 -0.0768539 
17803 9 18.6355 24.4714 8.19816 9.12383 9.19486 -0.6922 
20290 6 16.6573 25.8385 8.42977 -27.2444 -4.53974 8.19246 
17697 3 19.4666 23.9299 8.24968 -7.267 -15.4179 7.91631 
17701 3 18.7572 27.5768 9.07536 -11.4026 -29.3656 -3.15099 
17695 2 19.6311 23.298 9.64847 1.15488 5.94296 78.169 
17696 2 19.6976 27.9701 10.2409 32.9298 100.117 89.1587 
17700 5 20.9899 23.6351 10.1729 -17.3491 -7.72423 -19.0877 
17702 5 21.0953 27.3466 10.1236 8.15227 -13.3255 -19.7183 
17699 5 18.7076 23.7838 10.7613 -3.26702 -4.43634 -0.653158 
20229 1 17.0048 25.6018 10.9426 18.8501 14.8644 -10.1486 
17708 7 20.0702 22.1005 7.0657 -0.253204 1.39949 0.763931 
17670 6 20.1319 21.2549 6.64674 -0.735782 0.850401 -1.25922 
17707 7 20.7868 25.2363 7.6314 4.66433 4.90343 -0.080811 
17706 7 21.1787 26.5559 8.43819 0.0954578 6.47919 6.76194 
17671 6 21.5933 25.7538 7.94146 -0.310803 -4.6699 5.36659 
17804 9 18.1596 28.2261 8.79174 4.32594 -0.377008 -3.00136 
15302 9 22.12 22.0167 7.2663 -10.7775 2.2914 -0.683948 
15082 7 28.9341 21.4367 6.98265 -0.13753 1.91595 -3.12273 
15309 7 26.1711 21.1856 5.56242 -0.0517254 0.353487 -0.580187 
15297 7 25.7773 22.9358 5.36905 0.0245648 0.421647 0.0410761 
15076 3 22.8653 21.7306 7.945 5.19824 -10.2836 7.05815 
15105 6 25.4296 21.9972 5.7434 2.52081 2.81111 8.71665 
15067 1 28.5009 21.8246 10.3102 7.66463 14.1449 33.9112 
17603 1 22.8719 21.8054 10.3091 42.0396 30.9793 65.8791 
15070 8 24.6898 21.8654 7.53391 8.74423 22.0235 -5.79438 
15157 7 24.761 24.7113 6.5409 0.10009 1.41911 -2.21231 
17693 1 22.4585 25.6458 10.3024 35.3464 46.7222 71.5813 
15118 6 24.3516 25.0692 5.80024 0.216719 -0.0157976 -0.0814688 
15156 7 23.4675 25.4068 6.08223 0.347639 0.0654741 -0.0148913 
12750 9 28.7793 27.0604 8.02173 -18.1685 -1.28994 -3.61271 
15145 3 25.8709 28.1424 8.32624 -25.0682 -10.1488 24.3561 
15077 4 25.2347 23.1977 8.50469 -14.8643 -21.7683 -11.5402 
15146 4 25.5466 25.6818 9.29943 -7.67785 17.9124 -15.6035 
15143 2 25.8227 27.2278 9.63665 33.1058 57.6154 43.1185 
15071 2 25.6377 24.1622 9.58877 41.891 137.048 69.7171 
15078 5 27.0823 23.775 9.8664 3.64735 -1.43855 -12.3596 
15148 5 27.2019 27.5255 10.2775 11.4656 -13.2457 -16.2404 
15051 1 28.9278 25.6837 10.4438 0.78048 13.3746 52.4188 
15147 5 24.7278 27.7419 10.5663 3.79337 -1.7969 -8.26579 
12524 3 29.1596 26.0649 8.01414 -11.219 -1.27783 9.25036 
15045 6 29.2043 21.7754 7.82857 -18.4571 -10.9853 5.63645 
15251 9 25.5134 27.6474 7.63837 -0.077924 -0.291271 15.4947 
15151 5 24.6677 23.8201 10.7274 -4.69839 -8.01 -16.206 
25272 7 0.361106 4.19332 16.1521 5.093 1.53066 6.48492 
25198 5 4.5419 2.55475 12.6561 -17.8633 -9.84961 -9.16185 
25195 5 4.3158 -1.09258 12.7632 -1.73423 -3.8883 4.03136 
25511 9 -0.13106 0.763973 16.093 -8.94211 5.04979 -5.97695 
22635 1 6.05896 0.692999 12.8525 -17.7891 -3.02358 -1.81339 
25268 5 2.06322 2.89899 12.9931 1.11174 -10.4105 -21.309 
25258 1 0.250924 4.4912 12.7638 -2.93086 -4.05116 -3.83417 
25207 1 0.476342 0.786529 13.0733 12.3025 39.8716 30.0433 
25191 2 3.47612 3.03985 13.5769 18.5849 111.524 61.6754 
25263 4 3.57926 4.53329 13.9916 -26.3625 7.08036 -28.1087 
25197 4 3.26023 2.0922 14.7531 -7.27802 -24.3772 -10.1297 
25192 4 3.04502 -0.482259 14.848 -8.95637 -9.76961 -5.03708 
25196 3 0.676901 0.746929 15.5334 9.69294 -18.0964 16.5451 
25190 8 2.51412 0.903228 15.8394 8.23525 36.0534 -6.78793 
25240 6 3.55359 0.863606 17.4947 4.08318 2.4915 27.7316 
25519 7 3.22712 0.0794751 18.1954 0.226812 1.29957 -11.0953 
25507 7 3.38683 1.75362 18.1128 -2.92886 2.35592 -15.1568 
22649 6 4.09099 4.46123 16.9677 -8.15031 7.65871 -5.47464 
25308 6 0.092117 4.43608 15.2325 -32.6643 -11.8524 -2.37036 
25270 6 1.48577 3.55285 17.6272 -23.9056 -3.23406 -1.62415 
25310 7 1.77351 3.32872 18.5205 0.578078 2.05062 -0.966231 
22655 1 6.37544 4.67075 12.8239 -1.98018 4.52331 -7.80363 
25194 5 1.89442 -1.62182 13.1754 -0.0624013 -14.1286 -20.0658 
25189 2 3.31878 -1.5892 13.8009 45.066 158.775 95.5454 
25309 7 2.29375 3.78265 17.2184 -0.57913 -1.2722 -5.97039 
22683 6 6.1666 0.747334 15.5266 -12.0692 -8.90556 16.0844 
22650 7 6.54724 1.21858 16.2521 0.522205 1.28479 -1.04123 
22684 7 3.91946 3.69179 16.3967 -1.55451 2.61666 7.22557 
22644 3 6.85119 4.34218 15.1524 6.40439 -13.9033 6.10632 
22651 7 5.24719 1.1571 15.4618 10.447 3.83887 -3.91139 
22759 7 5.01723 5.23274 18.9359 3.70759 2.25277 1.45167 
22686 7 6.18916 1.25051 19.0148 9.74752 1.3229 6.35179 
22959 9 6.14577 4.67373 15.8817 -7.59479 3.73083 1.2156 
25311 7 -0.139274 4.26112 18.7216 6.89647 0.991156 1.45286 
22685 7 4.27871 5.12243 16.278 -1.03058 9.80277 13.2175 
12753 9 29.5419 28.2079 18.7045 -4.48816 2.75398 -4.10154 
22653 7 6.35118 -1.40593 15.7539 5.12102 6.87612 -5.32651 
25271 7 -0.685773 5.01455 15.2683 10.2889 2.88104 -10.0255 
25465 9 2.92669 28.5543 19.1351 1.64492 8.57178 27.7227 
15278 9 28.5442 28.8402 16.0666 -4.66279 4.96671 -51.4607 
20023 6 7.58012 1.6925 17.8228 -21.7747 -14.5455 -30.0489 
20061 7 8.14193 2.17903 18.4074 -0.0523906 -17.5042 8.7251 
20022 6 13.314 2.80832 17.149 -3.32237 0.539941 -3.37223 
20062 7 8.04805 0.866099 17.7668 -0.0442677 -10.8709 -0.112326 
20101 7 9.98235 -0.0157345 17.9856 -2.35717 -5.30525 3.16729 
22931 9 9.94932 -1.09404 15.6756 2.20529 2.92363 34.6701 
22643 5 10.3472 2.57234 12.1955 -2.10234 -4.80044 -8.91162 
20083 1 12.0539 4.57824 12.2941 24.1927 14.1783 25.0969 
22642 5 7.78438 2.32799 12.6693 -1.75309 -8.26739 -20.61 
22572 5 10.3915 -1.19034 12.4814 1.7583 -8.59136 -8.81746 
22647 5 8.01803 -1.15376 13.3887 13.6255 -15.5984 -18.1131 
20029 1 12.4935 0.818447 12.5759 2.09616 11.1962 -6.2901 
20095 5 13.8672 2.81253 13.0198 -8.663 -11.6235 -13.8701 
22637 2 9.23854 2.21284 13.1776 45.2055 96.7059 77.079 
22565 2 9.47766 -0.798971 13.6553 40.313 49.002 53.201 
22641 4 9.6135 0.790931 13.697 -17.8162 11.3464 -21.5044 
22640 4 9.10375 3.21619 14.2882 -12.5992 -25.6112 -15.0244 
20060 6 12.5711 0.511401 15.1897 -12.8822 -9.82604 12.5808 
20025 7 13.4344 0.0115845 15.1935 11.423 6.32506 -4.47143 
22638 8 8.67678 4.45054 15.3869 1.62642 21.0092 1.98194 
20024 7 12.6003 0.986429 15.9956 2.10605 2.44221 -6.72787 
22688 6 9.09888 4.57578 17.2584 -6.62228 0.918672 22.932 
20130 6 9.31463 -0.317543 17.3786 -7.16288 -14.3805 -14.5839 
20016 5 13.8732 -1.10957 13.0216 1.7027 -16.2673 -20.5255 
20100 7 9.21978 -1.16838 17.8038 -3.82416 -5.97017 6.87758 
22967 7 8.74935 3.77976 17.9121 1.42425 6.10016 2.46227 
22571 3 10.0166 -1.61211 14.8648 -17.3325 -17.684 1.60901 
20135 7 12.0278 1.3837 18.7762 4.45624 0.705931 -2.97199 
22955 7 8.98531 5.4362 17.8495 -0.910681 5.21175 7.23672 
20064 7 13.9871 3.28849 17.6567 1.80964 0.78833 0.960856 
24915 7 -0.657171 24.1243 16.045 -3.9548 -3.21786 -12.1454 
20063 7 13.8025 2.54263 16.4071 4.08205 -0.165178 0.398713 
20096 6 11.822 0.515676 19.114 -21.4145 -3.09575 8.96289 
20365 9 14.5631 -2.22286 18.7973 1.36514 7.05914 43.4039 
20099 7 10.647 4.54921 18.8079 2.60754 -2.57791 -3.82453 
20134 7 12.1809 -0.0849441 18.3797 3.97763 3.26942 3.22058 
20379 9 16.1952 1.6227 15.0965 10.3993 15.0666 -7.1857 
20378 9 15.4007 0.0444891 14.8487 0.320351 93.6225 28.513 
20012 2 15.2359 -1.61828 13.5115 20.4346 -43.3436 74.4293 
17469 5 19.9364 -1.30131 13.4326 -6.39511 -11.1993 -14.691 
20017 5 16.2815 -1.21496 12.5395 7.3612 -0.841614 -7.9706 
20020 5 16.2894 2.4578 12.6312 -6.40152 -4.7914 -9.80612 
17477 1 18.4308 4.50707 12.7514 51.4876 44.0952 59.629 
17458 1 18.218 0.637135 12.871 53.805 41.6924 13.6102 
17464 5 19.9587 2.61017 13.0923 -2.64476 -12.5581 -14.6343 
20014 3 15.3481 -0.927596 14.9324 -17.6068 -6.10926 26.4779 
20013 2 15.2355 2.86552 13.6686 25.3922 -36.9687 64.592 
20089 4 15.4847 4.41259 13.8828 -13.484 -0.113802 -19.3086 
17460 2 21.2934 2.30374 13.8302 63.7188 65.104 76.1805 
17386 2 21.2555 -0.760946 14.0881 53.228 148.843 32.5126 
20019 3 15.3443 2.03054 14.9435 -25.1647 -19.9016 -1.79384 
17466 6 17.7796 0.509342 15.4113 -23.3962 -5.87685 27.4207 
17494 7 17.1625 -0.17096 15.7422 11.4614 0.991077 -3.8391 
17493 7 17.8571 1.0794 16.2875 4.94327 11.3336 10.5441 
17471 6 18.3628 2.74924 17.3162 -25.649 -9.45592 -6.315 
17510 7 19.2785 2.95324 17.1901 -0.17168 0.924263 0.602003 
17509 7 18.3357 2.05864 18.0299 4.85228 7.40674 2.05914 
17463 4 21.2166 0.803669 14.1626 -9.48362 -4.14931 -34.6985 
17472 7 19.272 5.13258 15.7001 1.43992 -0.350029 -6.83526 
17508 6 18.4645 4.77687 15.3702 -18.4326 -13.2918 14.5526 
17473 7 18.1523 4.09833 15.985 2.41542 6.23131 -4.05334 
14959 7 20.9362 1.31848 17.9567 -0.584128 11.1036 15.1866 
14960 7 21.3856 1.62624 16.4895 -3.99407 7.6723 -4.38369 
17391 3 21.3479 -1.25908 15.5317 -22.7295 -36.6555 10.2721 
17825 9 21.2257 -0.436868 16.1354 -2.28495 6.86484 -12.9252 
17462 3 21.2978 3.04381 15.1447 -18.8648 -44.9819 -11.9176 
14918 6 21.3074 0.874392 17.1045 5.56162 -23.5184 7.61839 
17583 7 17.5984 4.40793 18.0008 4.89525 10.1811 5.30377 
17826 9 20.6803 3.78151 15.1872 2.08401 14.0521 1.4266 
17544 6 17.3829 4.70544 18.9334 -19.1205 -19.6951 21.5327 
17582 7 16.7133 5.40175 18.764 -1.67299 -0.982426 -11.937 
17456 7 16.3858 1.3348 18.996 15.5454 6.07353 1.99606 
17813 9 20.5374 3.6902 19.3352 0.0635612 20.9214 -0.804843 
17499 3 20.6178 2.68804 19.2266 -15.8501 -2.87502 5.46368 
17503 6 16.8912 0.523694 19.1158 -20.2949 -8.33504 17.242 
17457 7 16.1895 -0.177096 19.1262 3.8261 -4.63491 -4.09409 
15272 9 27.8726 -1.8075 15.8323 3.06408 12.005 68.5049 
12292 7 29.3861 -0.16671 15.9019 6.57261 -7.48595 -6.86364 
12752 9 29.7411 4.22813 18.6426 -16.5047 2.80571 -0.483799 
17392 5 22.3788 -1.113 13.0479 11.2015 0.305349 7.11085 
14833 2 27.436 -1.7351 13.7653 11.6874 86.4797 64.0789 