ITEM: TIMESTEP
470000
ITEM: NUMBER OF ATOMS
25517
ITEM: BOX BOUNDS pp pp ff
-3.8959205201285124e-01 6.0088135642019459e+01
-1.9452389155355383e+00 5.9115524189537531e+01
-1.2206056431032383e+01 1.1390111600702880e+02
ITEM: ATOMS id type x y z v_stressx v_stressy v_stressz 
25292 7 5.89857 3.03966 7.5916 -2.46234 -8.49127 -6.20162 
25293 7 5.98077 1.53035 7.7064 -1.895 -5.90422 -1.91145 
25252 6 5.35811 2.25094 7.51796 -6.35298 -3.25187 0.192632 
25287 5 0.61597 0.755495 10.7564 8.00834 -1.65314 5.26821 
25283 5 2.94291 4.2301 9.842 11.0412 6.46085 -12.7929 
25281 4 1.3887 2.44216 9.07367 -12.7946 1.88842 -16.2697 
25280 4 1.07853 5.00258 8.46007 -12.7471 -8.47718 -6.75744 
25277 2 1.45655 3.94107 9.49571 50.8914 37.581 78.629 
25215 5 2.99957 0.588718 9.72621 -14.5064 -10.0443 -11.7138 
25209 2 1.59287 0.935181 9.44522 6.61822 -57.7437 71.8014 
25188 1 4.8243 2.58953 9.97468 4.92292 0.621054 14.0208 
25214 3 0.796635 0.0137284 8.44439 -1.84371 -4.41872 2.07448 
25282 5 0.520916 4.37471 10.6565 -14.8631 -14.3979 -18.0924 
25458 9 1.40812 -0.435335 7.83607 0.0236292 2.07511 1.71424 
25206 1 4.52732 -1.17961 10.115 34.8611 37.9546 20.3261 
22660 5 6.52822 0.875659 10.2203 -1.41578 -5.39876 -15.6986 
22735 5 6.623 4.87348 10.5536 2.11624 -9.28125 -13.1533 
25505 7 1.83983 5.65447 5.50835 -0.0552694 -0.159887 -0.295896 
22662 3 7.17647 4.29529 8.22411 -11.9589 -23.1852 -18.783 
22658 3 7.30314 0.346889 7.89736 -14.9503 -15.2316 -11.3417 
22905 9 7.65252 -0.485879 7.46068 0.0202379 -0.41508 -4.49198 
22906 9 7.50322 4.57024 7.35908 -2.77002 4.32658 9.63689 
20115 7 11.1372 2.292 6.49758 0.44641 -0.0070786 -1.15756 
22656 2 7.7059 0.365729 9.40584 22.4353 74.1962 62.59 
20116 7 12.1136 2.88755 7.40659 19.6648 6.69436 2.63626 
20078 6 11.1398 2.86581 7.23657 -15.9909 -11.6289 1.81056 
20106 3 13.741 4.72985 7.46261 -15.5989 -11.0857 42.3715 
22657 2 7.60419 5.1024 9.41016 53.4426 -15.447 21.8656 
20036 3 13.619 0.47741 7.57109 -16.4985 -19.5562 16.6304 
20107 4 13.6664 2.6833 8.8298 -17.8252 -14.1014 -33.6182 
20104 2 13.8784 4.18168 8.97251 31.1811 36.6159 94.3128 
20031 2 13.7132 1.1448 8.96008 62.2623 164.177 13.2643 
20108 5 12.6966 4.70757 9.81807 14.7814 11.8647 1.46319 
20112 5 12.4932 0.846951 9.91178 11.1221 -0.322458 6.97329 
22654 1 10.4859 2.78478 9.68506 11.3228 10.1198 11.5865 
22661 5 9.03983 1.11007 9.56315 -7.53355 -6.44846 -16.2487 
22663 5 9.10858 4.7108 9.73761 4.26314 -12.9839 -15.7562 
22563 1 10.886 -1.13469 10.1589 -0.0341697 -0.738013 -7.43613 
22659 4 7.7627 -1.12896 9.68153 -9.52475 -34.9651 -35.2077 
22629 6 11.3751 -1.065 7.76545 -16.8431 5.05308 2.37829 
22669 7 11.9249 -0.207968 7.44815 1.31236 5.20879 -1.24548 
20352 9 13.8605 1.22514 6.87465 0.71435 12.5266 14.6913 
20189 7 14.2777 3.18994 6.51456 0.272986 13.5177 8.35532 
20353 9 14.543 5.23857 7.22704 7.72582 13.2189 16.8053 
20148 6 14.5671 2.45013 5.87332 0.144385 0.0575699 0.0998833 
22740 7 11.2703 5.5881 6.8279 3.29205 1.48089 -1.22179 
22738 7 8.76742 5.41578 5.90114 -0.682984 0.701229 -1.36837 
22701 6 7.85394 5.37142 5.69312 0.462585 -0.325723 7.86149 
22739 7 7.886 4.86164 4.87022 -0.0110697 0.0203071 0.00863719 
22670 7 11.9327 -1.89861 7.72342 1.075 1.65567 -5.17673 
20188 7 15.4435 2.20345 6.22553 0.812481 -0.137642 0.0708314 
20037 5 15.0057 0.565552 9.66218 -0.903306 -6.95834 -12.6165 
20118 7 17.8719 2.63796 7.70159 5.66013 -0.351143 -2.92535 
20117 7 17.6995 1.17882 7.44002 3.01416 2.53779 -4.70643 
17799 9 19.455 -0.241526 7.33338 0.314222 6.58485 17.8919 
20077 6 17.1284 2.01775 7.60787 -23.1751 2.47054 26.6946 
17484 3 19.536 4.02271 8.03155 -4.22745 -2.54314 -2.40876 
20109 5 15.1822 4.68195 9.53593 -5.77918 -7.30743 -17.3082 
17480 3 19.3808 0.510653 7.95906 -16.4965 -32.018 10.8098 
17478 2 19.7385 0.13463 9.405 32.8851 34.6512 46.0495 
17479 2 19.7269 4.90401 9.32133 46.8389 113.103 62.1 
17485 5 21.0972 4.45706 9.83859 4.85351 -15.8949 -16.7938 
17483 5 21.125 0.57616 9.92672 5.09551 -9.99722 -13.1189 
17482 5 18.7273 0.612358 10.4453 1.15053 -3.70195 -5.78909 
17560 5 18.5746 4.39351 10.2378 -0.790898 1.99024 -10.8113 
20011 1 16.7883 2.43064 10.1919 50.52 45.9374 49.3959 
20028 1 16.5417 -1.33752 10.1131 23.6871 17.2304 10.2323 
17481 4 19.613 -1.37684 9.30614 -12.3668 -19.8696 -37.4315 
17800 9 20.2785 3.41394 7.96437 0.32116 -2.90621 -5.4529 
20002 6 16.2002 -1.21507 7.53432 -10.4168 -7.50951 13.6542 
20044 7 15.5857 -0.449442 7.68688 4.33931 8.59531 -2.94154 
20043 7 16.3516 -1.12082 6.60323 0.282537 0.200749 -0.840344 
17377 6 19.8786 -1.6773 6.3322 0.248191 -0.138571 -0.0105109 
17415 7 20.5742 -1.92657 6.98281 2.84819 2.47578 2.08802 
14864 7 23.6314 3.83266 7.75133 5.55891 -4.70811 -1.48177 
14825 6 23.2988 2.969 7.82153 -9.25071 -3.783 1.38964 
14863 7 24.1611 2.53617 7.90018 3.8505 -1.3341 -0.564536 
17476 1 22.5994 2.5974 10.2549 -65.3961 -40.9744 58.2462 
14928 3 25.5679 4.59148 8.20809 -31.2427 -49.8819 -46.8571 
15246 9 24.7065 0.00657495 8.04332 7.9741 10.8138 20.0636 
14856 3 25.5405 0.383335 8.16649 -12.577 -14.8331 10.7088 
14929 4 25.6618 2.47021 9.27814 -17.5958 -35.1126 -33.4762 
14851 2 25.7726 0.935136 9.6021 19.2321 -189.704 74.7488 
14926 2 25.8313 3.99121 9.61155 27.9335 145.632 87.2714 
14857 5 27.172 0.513951 10.0212 -9.65554 -11.974 -21.0484 
14931 5 27.2703 4.30837 10.1061 -28.3465 -11.4077 -17.5844 
14832 1 28.9014 2.41808 10.4207 14.838 12.0982 43.9664 
14930 5 24.8007 4.37565 10.6576 12.5558 -4.54355 -12.8497 
14934 5 24.7275 0.511689 10.6576 4.76641 -3.87111 -0.543922 
17384 1 22.8636 -1.16741 10.5973 -1.56764 4.42815 -9.2275 
14848 1 28.7231 -1.43222 10.2624 14.8853 18.9091 -2.96375 
14898 6 29.1786 2.45721 7.88738 -13.7406 -15.3728 6.04433 
15247 9 26.3681 4.66526 7.72718 -1.61435 -1.09491 -15.3046 
14826 6 28.1456 -1.3901 7.71182 1.39176 -3.48801 26.9665 
14861 7 27.5228 -0.59177 7.7367 4.99288 5.86822 -2.28073 
14862 7 28.7608 -1.17174 6.9734 0.155267 0.0381674 -0.0658365 
17565 7 23.8543 5.62398 7.62904 12.4758 3.73811 -1.6339 
17491 7 23.3409 -0.830267 7.25909 0.0974158 0.0710017 -0.456604 
12347 6 29.4782 5.3719 8.00631 -15.2447 -7.18245 4.08795 
14939 7 29.2544 3.33895 7.63004 0.450515 -0.923714 -1.1949 
17492 7 24.1978 -1.77871 8.08715 8.23789 2.43747 -6.21399 
17450 6 23.2929 -1.42611 8.02021 -21.6765 -6.93611 18.9626 
25291 7 5.22591 6.53661 7.32751 1.17788 1.6582 -3.22838 
25290 7 3.82687 6.55555 6.86919 -0.69041 1.66913 -4.40954 
25253 6 4.33607 6.71227 7.63615 -9.55813 -11.6063 2.20798 
25517 7 1.84279 7.29014 5.50902 -0.025641 -0.0561757 -0.55402 
25313 6 1.21101 6.45671 5.78137 6.01792 -5.3816 30.3664 
25362 7 1.19888 10.608 6.31952 -0.0148015 -0.00561216 -0.026369 
25275 1 4.36027 6.50413 10.1833 2.83834 12.1329 13.5917 
25278 8 0.639374 6.49188 7.63496 53.195 32.0603 10.1897 
22958 9 3.89074 10.3239 7.2783 -3.475 1.50607 0.236634 
22732 3 4.70032 10.3548 7.96195 2.47825 -12.6032 14.0022 
25359 5 0.701437 8.49354 11.0939 -9.66793 -10.4318 -17.2133 
25356 5 3.08021 12.146 10.2169 9.87015 0.164356 -13.1689 
25355 5 0.535314 12.2845 10.6518 -2.51729 -5.52936 -8.54358 
25354 4 1.48185 10.2856 9.54639 -13.5528 13.5871 -27.4343 
25353 3 1.39194 12.6945 8.41831 -15.919 -9.58168 2.50806 
25351 2 1.63225 11.8296 9.72046 39.1807 48.3956 67.1543 
25286 5 2.93236 8.28049 10.0288 -5.51785 -16.0284 -19.4294 
25285 4 0.892127 7.85648 8.74192 -20.8326 -18.6924 -5.1283 
25279 2 1.49492 8.71367 9.83417 15.963 98.4897 79.6912 
25259 1 4.86194 10.2149 10.3927 8.1931 9.7566 57.1818 
25327 6 1.60703 9.7444 6.34125 2.31137 1.28532 -0.751961 
25363 7 1.38635 9.50649 7.2315 0.548445 2.76356 1.39401 
22807 5 6.5607 12.2849 10.8694 -15.5648 -14.4674 -17.594 
22730 5 6.65234 8.34528 10.5398 -4.58588 -14.6394 -13.917 
22726 8 6.48614 10.4372 7.49213 -1.6851 17.81 -26.8627 
22761 6 7.05704 10.8316 5.66761 1.75702 2.50836 6.80844 
22733 4 6.9844 11.7221 8.61372 -10.9034 -12.6715 -2.54858 
22728 4 7.23016 9.05362 8.29312 -12.8927 -20.2725 -5.67112 
22953 7 7.91026 10.1976 5.3838 -0.0660314 0.100316 -0.651447 
22965 7 7.33207 11.8331 5.45166 -0.0483101 0.141677 -0.276651 
22741 7 11.5 7.01103 7.05421 2.61574 -0.0291482 -1.57365 
22700 6 10.8104 6.36788 7.23855 -16.2161 -2.1029 18.762 
22636 1 10.9188 6.69179 9.82281 4.51089 9.4996 12.3181 
22729 4 7.48133 6.61374 9.11192 -11.2583 -8.77611 -28.1676 
22668 7 10.5831 8.59932 7.42923 1.93213 4.35203 -3.13276 
22725 2 7.70374 8.13304 9.39568 27.0424 31.4999 97.9613 
22727 2 7.53968 12.6129 9.75953 16.4806 132.737 80.1714 
22630 6 10.7174 9.56513 7.55044 -8.23013 0.739281 5.23289 
22667 7 11.6785 9.56 7.58776 1.28128 0.73246 -1.31396 
20110 3 13.3722 8.00482 7.87861 -10.9205 -1.08281 -3.66994 
20176 4 13.3404 12.979 8.33811 -6.65028 -6.94446 -3.9966 
20177 4 13.5478 10.5013 8.95979 -6.39192 -0.301935 -16.1135 
20173 2 13.7057 11.9908 9.40771 34.5224 -4.51959 76.721 
20105 2 13.7244 8.93675 9.12343 -1.65565 6.4178 84.7473 
20178 5 12.5598 12.2564 10.4158 -7.87079 -12.5703 -22.5007 
20183 5 12.8988 8.51128 10.3587 -3.56164 -10.95 -7.76511 
22734 5 8.97942 12.4092 10.1072 -12.2689 -12.551 -17.1926 
22723 1 10.5486 10.4168 9.97488 -2.97619 4.24766 9.5685 
22731 5 9.11607 8.33188 9.85191 -15.6259 -24.2713 -22.3266 
20354 9 13.8366 7.1662 8.02076 -1.19383 -12.3265 -25.4845 
17489 7 15.3685 7.53149 7.27379 -6.21282 -2.26657 -3.78759 
17490 7 16.4114 7.08597 6.51817 -0.22529 0.0339467 -0.311973 
17451 6 15.9423 6.78743 7.29642 -18.6797 -17.2644 17.4681 
17555 4 19.5148 6.40419 9.24816 -10.8664 2.32348 -19.1159 
20102 1 16.4765 6.46221 9.86905 10.9495 0.394132 19.3911 
20179 5 15.0791 12.3713 9.86379 2.76094 3.64932 -11.3827 
20111 5 15.0953 8.51182 9.52882 -26.0535 -13.829 -14.4528 
17802 9 19.4832 11.878 7.51898 -0.108648 -0.0989245 0.155946 
17554 3 19.6317 8.68088 7.9737 -1.89694 -5.31132 6.16507 
17801 9 19.3812 9.57046 8.10065 0.647263 12.1447 6.28763 
17558 3 19.3121 11.5602 8.35726 -4.13298 -2.1059 -0.0769003 
17552 2 19.7279 7.97853 9.40881 25.3422 57.9309 62.7836 
17553 2 19.7446 12.5897 9.5152 42.7738 43.358 68.13 
17559 5 21.2085 12.1329 9.83297 6.81048 -0.668851 -10.9766 
17557 5 21.1128 8.33065 9.93016 0.949668 -11.4866 -16.0737 
17556 5 18.49 8.44005 10.194 12.5361 -3.8542 -6.98893 
17631 5 18.754 12.2185 10.6826 1.90976 -5.63249 -3.72213 
20084 1 16.8199 10.2664 10.3615 -11.4208 -4.51746 -0.956471 
17566 7 22.7737 6.49197 7.09029 0.0934016 0.0185692 0.0494053 
17525 6 23.2369 6.30614 7.97014 -29.8133 -5.95998 17.1301 
15249 9 26.4199 12.3989 7.50271 0.844723 0.685911 0.250035 
14924 1 28.8784 6.30371 10.2599 24.9265 20.2902 -0.421328 
17459 1 22.8153 6.36449 10.4136 -83.9193 -68.1549 23.8549 
17550 1 22.6813 10.1773 10.109 18.7447 17.4847 8.71628 
15248 9 25.0074 7.30471 8.25379 6.71879 8.8698 8.79775 
15002 3 25.5553 12.1132 7.86039 -4.83147 -8.80934 8.84381 
14932 3 25.8534 7.69566 8.37038 -4.64164 -4.19704 1.26866 
15003 4 25.6929 10.0578 9.40228 -9.04941 -5.89488 -23.6458 
15000 2 25.8234 11.5586 9.33827 29.5277 102.968 74.8966 
14927 2 25.9265 8.52626 9.67582 39.3939 66.6159 73.2893 
15005 5 27.2586 12.0307 9.65026 -1.56294 -12.6312 -17.1223 
14933 5 27.3368 8.19806 10.2714 9.42812 -13.9162 -17.5494 
15004 5 24.794 12.1885 10.2281 1.17718 3.08831 -13.0377 
14907 1 29.0423 10.186 10.3202 23.583 18.6353 22.5125 
15008 5 24.7476 8.17989 10.6591 15.959 -0.0718058 -1.41096 
14899 6 29.4402 9.94521 7.67407 -3.20948 0.0352906 5.38502 
17637 7 24.0129 13.1402 7.48134 1.61177 0.647685 -0.194656 
25427 5 0.471403 16.2254 10.9577 6.16823 -3.66062 -5.25336 
25424 5 3.05777 19.7432 10.2643 -15.1184 -6.4472 -10.0693 
25423 5 0.62854 19.9386 10.7649 4.31042 -4.27521 -10.0326 
25422 4 1.53223 17.8586 9.5283 -9.84102 7.08737 -14.7883 
25421 3 1.35286 20.1653 8.46116 -3.2481 -2.60416 -0.132883 
25419 2 1.68921 19.4163 9.80763 -40.7282 140.348 67.6628 
25358 5 3.0433 15.9649 10.3935 5.87645 -1.21088 -11.6556 
25352 2 1.62447 16.359 9.9389 57.568 2.49796 38.7755 
25333 1 4.76049 17.9652 10.8964 -6.56532 13.7476 -48.9673 
25357 3 1.27516 15.4524 8.77037 -12.3131 -16.8905 18.1901 
25460 9 1.6173 15.8283 7.87293 0.103982 0.361072 4.1986 
25349 1 4.58657 14.1062 10.6957 7.46095 16.247 -4.40663 
22803 5 6.49129 16.0975 10.8756 1.55552 -0.483761 -0.115989 
22875 5 6.46084 20.071 11.1158 20.3582 7.99899 7.29151 
25459 9 1.48999 13.6574 8.56205 -1.44761 4.07919 -3.96635 
22801 3 7.03055 16.5942 8.55987 -2.25775 -6.99067 3.99156 
2179 7 -0.387305 20.8468 8.22815 14.4117 2.28381 -6.33199 
22805 3 7.32975 19.3599 8.91011 -8.4654 -8.62291 26.4204 
22908 9 7.54595 19.9046 8.12021 0.0107794 0.2603 6.54859 
22774 6 7.84223 14.1301 6.46407 2.02687 1.26584 1.90282 
22907 9 7.21638 17.5067 8.66763 -0.0686124 20.2555 1.77584 
22800 2 7.69826 20.1918 10.1825 71.9139 58.0364 35.2041 
22810 7 9.52718 17.6319 7.67339 -2.05279 0.945568 -1.95969 
22775 6 10.3724 17.5576 8.1234 -17.9271 -9.01896 6.3698 
22811 7 11.0269 17.744 7.42304 6.06938 1.04953 -1.1153 
20249 3 13.6146 20.1923 8.5115 -17.565 -15.9796 19.5586 
22799 2 7.50164 15.6895 9.76752 1.15371 21.5067 70.9729 
20181 4 13.1648 15.598 8.7498 -9.81121 -32.0918 -12.1736 
20250 4 13.59 17.8559 9.69511 -14.0048 6.68593 -27.8725 
20247 2 13.6446 19.4223 9.89672 2.89297 29.0926 68.1994 
20175 2 13.7411 16.3389 9.95052 45.5751 116.773 87.6241 
20255 5 12.7826 16.0392 11.1348 -2.5365 -11.3485 -16.1459 
20251 5 12.5994 19.887 10.8751 -0.607624 -0.111762 10.5548 
22797 1 10.5866 17.8329 10.6706 3.47831 -1.3642 2.03624 
22804 5 8.85928 16.0465 10.2629 -4.48721 -11.0489 -13.9295 
22806 5 9.15709 19.6726 10.6518 26.3435 -12.5348 -10.9593 
20209 6 12.874 15.0323 5.7533 0.480771 -0.360596 1.52441 
20174 8 12.7095 14.4625 7.54514 27.4314 10.9768 -53.9178 
22802 4 7.35344 14.1712 9.46207 -20.8693 9.47935 -29.2203 
22707 1 10.7485 14.2517 10.2767 12.3893 10.6655 -4.73041 
20180 3 10.8086 14.0423 7.95232 18.2154 -8.90231 4.90605 
20260 7 13.0324 18.8856 6.99744 0.130888 1.3333 1.28973 
20261 7 12.9162 17.3666 7.33817 -0.524836 10.64 5.71912 
20401 7 13.4229 15.9899 5.62814 -0.162399 0.311409 -1.28492 
20406 9 10.0189 14.4108 7.4707 -1.27993 2.86201 -2.35989 
20413 7 11.9327 15.1884 5.26927 -0.0685392 -0.0247815 -0.439687 
20222 6 12.7014 18.0477 6.67459 -0.741963 0.709091 -1.00588 
22813 7 7.7456 15.0607 6.62462 -0.0708256 -0.0491626 0.062673 
22812 7 7.44152 13.8113 7.30537 0.741162 1.44927 6.53046 
17861 7 18.0327 18.1656 5.18632 -0.0415049 -0.0259113 -0.195641 
17849 7 19.1146 19.332 5.5722 -0.0526243 0.151661 -0.56366 
17657 6 18.7692 18.3451 5.88217 -4.86429 -2.6481 15.0077 
20252 5 14.9691 19.7344 10.5394 -8.50128 -13.5366 -17.8772 
20182 5 15.2166 16.0409 10.213 -4.04101 -20.6234 -13.6788 
17622 8 18.5634 18.0799 7.75046 32.068 28.066 -14.0363 
17854 9 15.9449 18.6012 8.0719 -0.308266 2.03183 -3.22506 
17628 3 16.7563 18.0742 8.25458 4.11325 -10.0509 9.58757 
17624 4 19.3217 16.6826 8.46567 -7.74604 -11.5441 -3.56812 
17629 4 18.9827 19.4332 8.85904 -13.682 -12.3718 1.56659 
17621 2 19.6951 15.6526 9.54627 46.1721 94.8447 81.542 
17623 2 19.5501 20.2671 10.0023 53.377 26.3882 73.8549 
17630 5 21.0316 19.7719 10.2793 12.452 -2.79745 -15.0735 
17627 5 21.1919 15.89 9.96206 1.14105 -17.6169 -16.7779 
20155 1 16.8424 17.9752 10.6946 2.36491 10.6949 -20.4338 
17626 5 18.7672 15.8963 10.7355 -8.70832 -8.6455 -11.6975 
20171 1 16.7158 14.1373 10.3208 4.96111 6.27202 -21.0805 
17625 4 19.606 14.0957 9.12525 -6.00086 7.91811 -11.5282 
17564 7 21.4906 17.2833 7.58657 -0.570357 1.56417 -1.18952 
17703 5 18.6795 20.0258 11.2014 -15.3309 -12.5774 -20.8259 
17709 7 19.905 20.6273 7.34679 2.88402 4.96137 4.48946 
20259 7 15.568 20.8847 8.4035 12.2166 3.53115 -2.31395 
17526 6 22.4132 17.452 7.70597 -7.68599 -6.64482 17.8998 
17563 7 22.8092 16.6576 7.3521 0.276168 0.352188 -1.89759 
17619 1 22.5682 17.9268 10.3236 11.1307 12.7329 -47.8313 
15250 9 25.4259 16.554 7.3496 3.22564 4.16834 70.3568 
15006 3 25.6058 15.7572 7.92658 -17.2596 -12.2128 55.662 
15072 4 25.3173 20.4252 8.40544 -13.0511 -7.91863 -3.05795 
15073 4 25.9599 17.9542 9.15621 -15.9044 6.00639 -35.0833 
15069 2 25.8295 19.4844 9.52152 47.3524 196.081 67.906 
15075 5 27.2671 19.8707 9.91392 4.91985 -4.14298 -14.5374 
15001 2 25.8934 16.4473 9.39988 31.8705 22.1218 32.5908 
15007 5 27.2951 15.9854 9.7832 -0.531304 -10.5131 -15.6797 
14980 1 29.1857 17.8209 10.1444 -13.1638 -20.8336 15.7893 
15074 5 24.8028 19.6389 10.6176 -5.96132 -5.23047 -19.1136 
15079 5 24.8396 16.1163 10.4638 8.66115 -3.49222 0.523152 
12533 7 25.4571 18.3754 7.23091 -0.390664 4.4445 5.97658 
17532 1 22.9834 14.1035 10.1761 9.60287 12.102 9.36592 
14998 1 28.6373 13.9834 10.0874 19.8955 24.7996 12.9813 
12492 6 25.1645 17.9196 6.43544 -1.26832 -1.71331 -0.912082 
12532 7 24.2391 17.8074 6.45162 -0.0711773 0.0107514 -0.230488 
17636 7 24.2982 14.6547 7.77674 3.1756 -4.70383 -4.56331 
17597 6 27.3956 19.7327 6.47718 -16.3579 -1.06742 1.02622 
17635 7 27.0344 19.9354 7.31032 6.34534 1.23028 -2.29121 
17596 6 23.5563 13.9987 7.66239 -11.4434 -1.56165 4.66055 
14974 6 28.7308 14.0837 7.53935 -5.71466 -10.9521 7.52605 
17634 7 26.9707 18.9124 6.11254 0.288077 0.569692 -0.153541 
15084 7 28.6931 18.2675 6.90767 0.593131 2.7704 -1.52437 
15012 7 28.1952 14.867 7.30744 1.77501 1.80585 -1.75788 
15044 6 29.2899 17.8272 7.55162 -18.4083 -15.3753 14.3339 
15011 7 29.5706 14.1102 6.99075 5.05052 0.883498 -0.260868 
25461 9 1.63963 21.1191 8.56579 -0.412163 9.0428 -5.98511 
25417 1 4.459 21.7465 10.9217 -17.222 -19.9256 -47.8556 
24923 5 0.754769 27.5218 10.9484 5.96648 1.62782 -2.42889 
25425 3 1.35108 22.98 8.77836 -10.6717 -8.38684 18.299 
24927 5 0.559259 23.61 11.1153 15.6494 -1.42088 8.15303 
25426 5 3.10363 23.8017 10.4009 3.72683 -9.39713 -9.30976 
25420 2 1.64879 23.9265 10.0018 35.6324 97.834 58.9236 
25401 1 4.97038 25.5329 10.7242 12.2972 4.85258 10.1321 
24924 5 3.18735 27.1766 10.4054 -6.11627 -6.12909 -13.8625 
24922 4 1.38256 25.4386 9.75254 -16.389 10.4082 -16.7703 
24919 2 1.7823 26.9563 9.95451 0.687203 144.526 59.3575 
24921 3 1.55556 27.7248 8.56562 -3.21936 -0.923584 8.42988 
25462 9 1.60156 23.3783 7.96981 -0.0543272 0.118463 1.81354 
22871 5 6.64021 23.6959 10.9095 4.66577 -4.74143 -5.33744 
25451 9 2.36751 27.8615 8.13061 0.052313 0.48163 1.54724 
22375 5 6.78156 27.3777 11.2762 1.96914 -3.96681 -3.69843 
20355 9 13.7553 21.1037 8.67011 -2.60752 21.2717 -0.946177 
22873 3 7.36095 26.8242 8.94079 -1.74293 -2.98201 22.6766 
22910 9 7.83453 27.1872 8.16884 0.0158169 0.303213 5.19512 
22881 7 10.5673 22.2037 7.78641 0.175433 0.149895 -0.591538 
22880 7 12.0072 21.7432 8.22322 12.0854 4.43303 -4.49255 
22869 3 7.56442 24.0265 8.5961 -0.862716 -1.2835 0.781282 
22842 6 11.0399 21.8185 8.50693 -11.6021 -8.5687 2.55801 
22909 9 7.42422 24.9915 8.72358 -0.292133 9.47461 -0.699295 
22870 4 7.80675 21.6814 9.76784 -9.83953 13.0401 -14.0397 
22781 1 10.8959 21.6885 11.0129 -26.0725 -19.2537 22.0442 
22868 2 7.76545 27.7412 10.1816 38.3654 98.297 41.3389 
22867 2 7.78902 23.2324 9.92461 54.2638 189.826 71.9466 
22381 7 12.0152 26.341 8.4485 11.0548 9.24745 -1.39223 
20253 3 13.4682 23.4016 8.82795 -29.2699 -27.5126 7.64738 
22380 7 10.8121 26.2531 7.54966 0.0743509 0.106428 0.0953956 
22342 6 11.2091 25.8188 8.3988 -19.3593 -2.81681 30.0345 
20317 3 13.3219 27.8427 9.08682 -10.3514 -13.1164 -8.71677 
20248 2 13.7696 24.0294 10.2263 8.16674 4.94931 109.222 
20318 4 13.624 25.5447 10.0164 -29.0409 -19.186 -43.6825 
20315 2 13.7788 27.0543 10.3348 50.5168 -14.7502 82.8409 
22865 1 10.6865 25.3992 10.9226 12.721 11.3717 29.5618 
22872 5 9.17462 23.6871 10.462 5.33579 -15.578 -14.1832 
22874 5 9.24947 27.6706 10.5948 6.6586 -9.8112 -10.3336 
20356 9 12.5954 23.6209 8.49206 10.277 3.83057 -9.99848 
25431 7 14.1509 26.52 7.83751 1.09019 4.74316 6.74894 
20323 5 12.8525 23.6161 11.429 2.05609 -8.2877 0.708582 
25430 7 14.093 24.9955 7.86813 1.70177 4.71028 10.3879 
25395 6 14.4016 25.7329 7.27378 -0.140121 0.0922317 -0.159456 
20258 7 15.2294 22.3163 8.12146 1.36126 0.11964 -1.38553 
20223 6 16.0015 21.7513 8.2238 -7.34465 -1.22307 9.00297 
20245 1 16.5342 21.695 10.8038 16.3503 20.3287 24.1623 
17698 4 19.4354 21.7483 9.56107 -12.012 -3.61505 -28.3091 
20320 5 15.2214 27.4242 10.856 4.65173 -11.038 -14.7284 
20254 5 15.1801 23.5949 10.561 -15.8993 -11.7197 -20.0668 
20329 7 17.2434 26.6466 8.28058 4.00963 3.21001 -3.67962 
20328 7 16.0419 25.8023 7.61998 1.70344 -0.0180145 -0.0815163 
17803 9 18.6355 24.4714 8.19816 9.13533 9.21929 -0.670897 
20290 6 16.6573 25.8385 8.42977 -27.1324 -4.74286 8.48831 
17697 3 19.4666 23.9299 8.24968 -7.28698 -15.4467 7.88976 
17701 3 18.7572 27.5768 9.07536 -11.3842 -29.551 -2.94482 
17695 2 19.6311 23.298 9.64847 1.49712 5.34423 79.1292 
17696 2 19.6976 27.9701 10.2409 33.387 100.714 91.6601 
17700 5 20.9899 23.6351 10.1729 -17.3845 -7.61521 -19.0918 
17702 5 21.0953 27.3466 10.1236 7.89813 -13.5266 -20.6073 
17699 5 18.7076 23.7838 10.7613 -3.24943 -4.22782 -1.99047 
20229 1 17.0048 25.6018 10.9426 18.5014 15.1768 -23.9514 
17708 7 20.0702 22.1005 7.0657 -0.248165 1.40353 0.885881 
17670 6 20.1319 21.2549 6.64674 -0.738358 0.857241 -1.38844 
17707 7 20.7868 25.2363 7.6314 4.67451 4.9226 -0.0486934 
17706 7 21.1787 26.5559 8.43819 0.143903 6.52368 6.79014 
17671 6 21.5933 25.7538 7.94146 -0.388871 -4.81988 5.24187 
17804 9 18.1596 28.2261 8.79174 4.31562 -0.353874 -3.13187 
15302 9 22.12 22.0167 7.2663 -10.7642 2.28678 -0.576322 
15082 7 28.9341 21.4367 6.98265 -0.119278 1.91312 -3.03916 
15309 7 26.1711 21.1856 5.56242 -0.0518556 0.353747 -0.583653 
15297 7 25.7773 22.9358 5.36905 0.0242366 0.421785 0.0388274 
15076 3 22.8653 21.7306 7.945 5.08106 -10.2959 6.51453 
15105 6 25.4296 21.9972 5.7434 2.53988 2.80543 8.81859 
15067 1 28.5009 21.8246 10.3102 7.71464 14.3825 37.7304 
17603 1 22.8719 21.8054 10.3091 41.9671 31.145 66.1374 
15070 8 24.6898 21.8654 7.53391 8.61045 21.9765 -5.23194 
15157 7 24.761 24.7113 6.5409 0.0691531 1.43399 -2.22153 
17693 1 22.4585 25.6458 10.3024 35.5381 46.8291 67.4977 
15118 6 24.3516 25.0692 5.80024 0.217885 -0.0172355 -0.0798436 
15156 7 23.4675 25.4068 6.08223 0.347154 0.0662672 -0.0149798 
12750 9 28.7793 27.0604 8.02173 -18.1177 -1.31112 -3.50268 
15145 3 25.8709 28.1424 8.32624 -24.9394 -9.83772 24.5523 
15077 4 25.2347 23.1977 8.50469 -14.8858 -21.8393 -11.8183 
15146 4 25.5466 25.6818 9.29943 -7.78675 17.836 -15.8224 
15143 2 25.8227 27.2278 9.63665 33.4949 57.5729 41.1617 
15071 2 25.6377 24.1622 9.58877 43.0269 137.572 71.9732 
15078 5 27.0823 23.775 9.8664 3.35272 -1.57785 -12.5012 
15148 5 27.2019 27.5255 10.2775 11.4654 -13.283 -15.6754 
15051 1 28.9278 25.6837 10.4438 0.397343 13.2241 41.275 
15147 5 24.7278 27.7419 10.5663 3.64627 -2.06078 -7.89004 
12524 3 29.1596 26.0649 8.01414 -11.3275 -1.29381 8.97541 
15045 6 29.2043 21.7754 7.82857 -18.5343 -11.0498 5.0385 
15251 9 25.5134 27.6474 7.63837 -0.088984 -0.304978 15.5591 
15151 5 24.6677 23.8201 10.7274 -4.97474 -8.11733 -15.9834 
25272 7 0.979784 4.85745 15.9966 -1.37462 1.22526 2.21169 
25198 5 4.5419 2.55475 12.6561 -18.0565 -9.83956 -10.5433 
25195 5 4.3158 -1.09258 12.7632 -0.646103 -2.94608 4.03725 
25511 9 0.085945 1.52626 16.0704 -9.15138 3.82732 -1.49446 
22635 1 6.05896 0.692999 12.8525 -8.9937 2.17 -14.6519 
25268 5 2.06322 2.89899 12.9931 0.657529 -10.9563 -23.0702 
25258 1 0.250924 4.4912 12.7638 -3.77433 -4.85622 7.55125 
25207 1 0.476342 0.786529 13.0733 15.0876 41.795 27.5461 
25191 2 3.47612 3.03985 13.5769 14.4676 105.237 60.3976 
25263 4 3.57926 4.53329 13.9916 -27.5509 7.95835 -34.3591 
25197 4 3.26023 2.0922 14.7531 -14.0529 -30.35 -14.2969 
25192 4 3.04502 -0.482259 14.848 -8.15332 -10.347 -2.7997 
25196 3 0.718877 0.962266 15.4281 18.1358 -12.2244 13.9444 
25190 8 2.56381 0.887663 15.8509 17.9874 25.3382 -0.615153 
25240 6 3.34941 1.06138 17.579 -5.34145 -9.1623 23.4042 
25519 7 3.04818 0.395612 18.348 -0.336892 -0.903302 -15.3332 
25507 7 3.4658 1.96279 18.1608 6.53684 11.0329 15.4705 
25308 6 0.287109 4.58627 15.3717 -20.5015 -8.8123 16.6612 
25270 6 1.79096 4.7748 18.0245 9.41268 14.1829 16.0845 
22655 1 6.37544 4.67075 12.8239 8.86034 20.4316 9.01525 
25194 5 1.89442 -1.62182 13.1754 -0.170784 -13.1799 -19.5265 
25189 2 3.31878 -1.5892 13.8009 44.0588 167.63 93.5643 
25309 7 2.62879 4.50049 17.3628 44.2738 -0.13629 10.862 
22683 6 5.9454 1.32348 15.2285 -21.9614 -12.3396 -6.55224 
22644 3 6.89997 4.57963 15.2702 18.1404 -16.7557 25.7792 
22650 7 6.31514 1.53815 16.1545 4.31182 2.18107 18.1953 
22959 9 6.25404 4.53188 16.1086 -11.8508 4.18277 0.340389 
22649 6 4.10163 4.23677 16.7654 -23.966 -7.43378 -42.2642 
22684 7 3.8272 3.52667 16.1964 -0.286848 0.943269 3.9017 
22685 7 4.07708 4.99701 16.0927 -0.153834 14.8366 15.9143 
22687 7 5.99269 0.349754 18.4018 0.913351 6.82966 0.610408 
20062 7 6.21815 3.12155 17.7012 4.50474 7.99247 -0.54998 
25310 7 2.23402 5.49035 18.6201 2.76546 23.9452 10.4145 
22651 7 5.19591 1.84541 14.943 16.8051 -0.659217 -4.01838 
22759 7 4.81877 4.99692 18.3922 1.92861 -1.07554 -9.80446 
20023 6 6.7397 2.28661 17.7115 -8.86533 5.14795 -14.5577 
25378 6 -0.246377 11.8961 15.8955 -24.2311 -7.10154 23.5427 
25201 6 0.158424 0.679061 19.1209 -13.7707 -11.3369 1.52526 
25312 7 -0.215567 4.66147 18.8876 0.660457 0.412907 -4.05906 
22760 7 5.26365 6.10956 19.3017 2.78459 7.32541 -6.74373 
25472 9 1.85244 3.46335 19.0168 -2.86482 22.3876 -115.28 
20061 7 7.38177 2.45406 18.4059 6.85805 0.255228 1.15517 
20022 6 14.2004 0.105268 17.4235 -7.30256 -24.4415 -8.26431 
20101 7 8.77059 0.735473 17.0316 -0.273504 -0.985494 -1.39903 
22931 9 9.94139 -0.587209 15.6984 1.93825 5.94464 82.3695 
22643 5 10.3472 2.57234 12.1955 -2.49987 -4.86525 -9.62463 
20083 1 12.0539 4.57824 12.2941 21.1439 12.3701 25.0086 
22642 5 7.78438 2.32799 12.6693 -1.10704 -5.90615 -20.9542 
22572 5 10.3915 -1.19034 12.4814 1.82336 -7.25172 -4.54327 
22647 5 8.01803 -1.15376 13.3887 14.0275 -11.5039 -14.8387 
20029 1 12.4935 0.818447 12.5759 5.85397 13.3236 -10.4059 
20095 5 13.8672 2.81253 13.0198 -7.83331 -11.0586 -16.0295 
22637 2 9.23854 2.21284 13.1776 47.2269 157.283 74.5047 
22565 2 9.47766 -0.798971 13.6553 42.1449 40.798 48.4015 
22641 4 9.6135 0.790931 13.697 -23.365 18.2387 -27.1266 
22640 4 9.10375 3.21619 14.2882 -12.0611 -18.8664 -8.01791 
20060 6 12.3091 1.05145 15.1241 -9.15066 -7.01246 4.26159 
20025 7 11.3955 0.808733 15.4423 10.9028 5.38889 0.514617 
22638 8 8.75232 4.49705 15.4593 13.8253 29.2228 -7.66369 
20024 7 12.8221 0.509109 15.7472 0.147552 2.99866 0.814626 
22688 6 9.96652 4.51217 16.9893 6.64711 0.772064 10.9846 
20130 6 9.61179 0.312074 17.1717 -9.7636 -1.79386 -1.47364 
20016 5 13.8732 -1.10957 13.0216 3.39478 -15.0586 -18.5652 
20100 7 9.34799 -0.344881 17.8887 0.60886 6.62685 17.2543 
22967 7 9.65237 5.15317 17.7863 -3.07826 0.985981 -12.9835 
22571 3 10.1742 -1.20515 14.992 -9.84601 -26.0465 10.8161 
20135 7 12.6322 0.589062 18.2398 11.8202 2.46971 -0.60605 
20134 7 11.0259 0.649171 18.2055 9.88083 2.44192 -0.916404 
22955 7 10.1495 3.56422 17.4509 0.201649 4.26608 -2.12182 
20064 7 14.2461 -0.33732 16.574 2.97663 4.55767 7.80159 
20063 7 14.2727 -0.558206 18.0502 -0.354681 -1.7454 -8.11546 
20096 6 11.82 0.628826 18.8206 -15.2017 -8.3052 5.50544 
20366 9 15.126 3.5033 18.7868 1.86461 5.09637 47.4166 
20099 7 11.6906 5.50667 18.4804 0.1062 -0.530832 -4.35926 
20365 9 14.9397 -1.83077 19.0794 -1.42136 -0.517247 25.1212 
20379 9 14.3742 1.89487 15.3598 -0.190404 5.69639 4.01665 
17474 7 17.1773 -1.72412 15.3356 18.8661 2.98182 -3.49288 
20378 9 15.4007 0.0444891 14.8487 -0.154824 49.8223 30.5346 
20012 2 15.2359 -1.61828 13.5115 9.35353 131.304 83.7271 
17469 5 19.9364 -1.30131 13.4326 -3.61204 -11.8653 -11.7088 
20017 5 16.2815 -1.21496 12.5395 9.3199 -1.54077 -5.37908 
20020 5 16.2894 2.4578 12.6312 -5.97402 -4.87841 -11.4588 
17477 1 18.4308 4.50707 12.7514 55.7005 48.5099 54.0357 
17458 1 18.218 0.637135 12.871 55.8064 43.8518 7.46362 
17464 5 19.9587 2.61017 13.0923 -6.07024 -12.4518 -14.8996 
20014 3 15.3481 -0.927596 14.9324 -15.901 -12.609 26.4408 
20013 2 15.2355 2.86552 13.6686 31.218 -15.5249 47.0627 
20089 4 15.4847 4.41259 13.8828 -22.5375 5.53252 -23.5625 
17460 2 21.2934 2.30374 13.8302 64.5863 122.998 68.1765 
17386 2 21.2555 -0.760946 14.0881 64.1207 122.083 38.1905 
20019 3 15.2403 1.98993 14.9264 -21.794 -6.42853 1.35285 
17466 6 18.0098 0.940386 15.3182 -24.1969 -14.9746 -3.12352 
17494 7 17.0847 1.22681 15.3264 -2.21885 -0.25962 -7.84686 
17493 7 18.4182 1.46623 16.0077 0.593977 3.34656 -2.29384 
17471 6 18.478 3.16044 17.5415 -9.95981 -25.0032 -13.4099 
17510 7 17.7115 2.85264 17.9669 -2.01936 1.36293 -4.85168 
17509 7 19.2548 2.75128 18.052 11.6162 0.159263 0.736486 
17463 4 21.2166 0.803669 14.1626 -13.6727 8.54733 -23.4381 
17508 6 18.0135 4.3423 15.0295 -23.852 -7.96696 -10.8349 
14959 7 21.0558 -0.840525 18.1761 1.28148 -7.06242 0.853411 
14960 7 21.3358 0.530657 18.2904 0.114126 -13.7096 4.23054 
17391 3 21.6257 -1.5348 15.3531 -22.7649 -24.9283 -4.71136 
17825 9 21.4776 -0.922573 16.1468 0.210328 6.524 37.7481 
17462 3 21.3402 3.05309 15.1837 -26.3153 -27.5316 15.9298 
14918 6 21.5729 -0.189329 17.6944 -9.57717 -23.9074 -16.9073 
17826 9 20.8431 2.56267 15.8476 -0.0875323 1.56543 -0.339356 
17472 7 18.1623 3.77916 15.8425 4.50785 5.47738 9.37817 
17473 7 17.0967 4.71918 15.1376 14.6669 1.71386 -1.5098 
17827 9 21.3784 5.16812 15.334 -0.465155 32.3047 -13.6355 
17544 6 17.6186 5.46367 18.9213 -12.9549 -10.0341 10.391 
17582 7 18.0196 4.7513 18.3266 5.68392 11.4746 0.160577 
17456 7 16.6317 1.42455 18.9576 22.0307 6.40397 -3.6084 
17503 6 17.2561 0.630401 18.9239 -17.489 2.28588 14.1683 
17457 7 16.6035 -0.0987095 18.929 11.2387 -0.0317415 -1.64391 
20132 7 12.7792 9.15334 19.2853 -11.7787 1.51759 -6.21117 
17813 9 21.7287 2.93301 18.9561 23.7176 10.19 18.875 
17499 3 20.9282 2.37922 18.9418 -20.6811 -41.4096 15.5176 
12292 7 29.0694 0.318088 15.668 14.1996 10.5001 -5.56249 
14905 7 22.3992 4.70482 18.7371 16.5758 10.4651 -6.15687 
14951 6 23.2633 4.19506 18.6433 -4.01481 -2.51091 44.7784 
15310 7 26.6893 -0.0982401 16.6872 -0.24168 1.29229 -11.9101 
14904 7 23.4914 4.4841 17.6847 1.23828 3.19465 10.4353 