ITEM: TIMESTEP
600000
ITEM: NUMBER OF ATOMS
25517
ITEM: BOX BOUNDS pp pp ff
-3.8959205201285124e-01 6.0088135642019459e+01
-1.9452389155355383e+00 5.9115524189537531e+01
-1.2206056431032383e+01 1.1390111600702880e+02
ITEM: ATOMS id type x y z v_stressx v_stressy v_stressz 
25292 7 5.89857 3.03966 7.5916 -2.47202 -8.49593 -6.2359 
25293 7 5.98077 1.53035 7.7064 -1.90299 -5.92008 -1.90289 
25252 6 5.35811 2.25094 7.51796 -6.33791 -3.23751 0.222197 
25287 5 0.61597 0.755495 10.7564 7.63074 -1.49717 5.18835 
25283 5 2.94291 4.2301 9.842 11.0567 6.42704 -13.1509 
25281 4 1.3887 2.44216 9.07367 -13.229 1.83565 -16.9017 
25280 4 1.07853 5.00258 8.46007 -12.7866 -8.44123 -6.67875 
25277 2 1.45655 3.94107 9.49571 51.5028 37.6242 80.0161 
25215 5 2.99957 0.588718 9.72621 -14.6862 -10.0127 -12.2199 
25209 2 1.59287 0.935181 9.44522 7.6585 -57.4642 74.6799 
25188 1 4.8243 2.58953 9.97468 5.22689 1.26923 14.4947 
25214 3 0.796635 0.0137284 8.44439 -2.01724 -4.42565 1.84408 
25282 5 0.520916 4.37471 10.6565 -15.1675 -14.6662 -18.8366 
25458 9 1.40812 -0.435335 7.83607 0.0203914 2.08422 1.7315 
25206 1 4.52732 -1.17961 10.115 34.7161 37.6737 19.9275 
22660 5 6.52822 0.875659 10.2203 -1.28927 -5.76395 -15.4752 
22735 5 6.623 4.87348 10.5536 2.52438 -9.10856 -14.4328 
25505 7 1.83983 5.65447 5.50835 -0.0555095 -0.161304 -0.296014 
25465 9 2.88111 28.4 18.8632 -0.269992 2.90313 49.8914 
22662 3 7.17647 4.29529 8.22411 -11.955 -23.2367 -18.6492 
22658 3 7.30314 0.346889 7.89736 -14.9242 -15.1566 -11.4634 
22905 9 7.65252 -0.485879 7.46068 0.0201977 -0.415705 -4.48129 
22906 9 7.50322 4.57024 7.35908 -2.77038 4.3337 9.6443 
20115 7 11.1372 2.292 6.49758 0.444994 -0.0064637 -1.1587 
22656 2 7.7059 0.365729 9.40584 21.6833 73.9256 61.6818 
20116 7 12.1136 2.88755 7.40659 19.6652 6.66904 2.64293 
20078 6 11.1398 2.86581 7.23657 -15.9441 -11.6063 1.7589 
20106 3 13.741 4.72985 7.46261 -15.6204 -10.9898 42.0923 
22657 2 7.60419 5.1024 9.41016 53.231 -15.7305 22.4331 
20036 3 13.619 0.47741 7.57109 -16.5587 -19.5469 16.7668 
20107 4 13.6664 2.6833 8.8298 -17.8441 -13.9921 -33.9843 
20104 2 13.8784 4.18168 8.97251 30.9335 36.1135 94.812 
20031 2 13.7132 1.1448 8.96008 62.5886 163.836 15.0412 
20108 5 12.6966 4.70757 9.81807 14.6068 11.9989 1.34811 
20112 5 12.4932 0.846951 9.91178 10.8975 -0.330294 5.06899 
22654 1 10.4859 2.78478 9.68506 11.3788 10.2082 11.5778 
22661 5 9.03983 1.11007 9.56315 -7.47206 -6.53862 -16.2596 
22663 5 9.10858 4.7108 9.73761 4.44593 -12.7809 -15.415 
22563 1 10.886 -1.13469 10.1589 0.70112 -0.418511 0.0312092 
22659 4 7.7627 -1.12896 9.68153 -9.33585 -34.6038 -34.6223 
22629 6 11.3751 -1.065 7.76545 -16.7914 5.03612 2.64284 
22669 7 11.9249 -0.207968 7.44815 1.30765 5.21098 -1.32331 
20352 9 13.8605 1.22514 6.87465 0.715151 12.534 14.6433 
20189 7 14.2777 3.18994 6.51456 0.272965 13.5213 8.38091 
20353 9 14.543 5.23857 7.22704 7.72019 13.2035 16.8664 
20148 6 14.5671 2.45013 5.87332 0.144582 0.0568715 0.0989526 
22740 7 11.2703 5.5881 6.8279 3.28261 1.48168 -1.19803 
22738 7 8.76742 5.41578 5.90114 -0.678326 0.70289 -1.37227 
22701 6 7.85394 5.37142 5.69312 0.446277 -0.327729 7.93294 
22739 7 7.886 4.86164 4.87022 -0.0110075 0.0203288 0.00837921 
22670 7 11.9327 -1.89861 7.72342 1.05331 1.65696 -5.30822 
20188 7 15.4435 2.20345 6.22553 0.814048 -0.136079 0.0755989 
20037 5 15.0057 0.565552 9.66218 -0.894932 -6.83021 -13.2289 
20118 7 17.8719 2.63796 7.70159 5.65639 -0.348226 -2.9535 
20117 7 17.6995 1.17882 7.44002 3.01917 2.54132 -4.72939 
17799 9 19.455 -0.241526 7.33338 0.309432 6.57461 17.9014 
20077 6 17.1284 2.01775 7.60787 -23.2114 2.45637 26.8423 
17484 3 19.536 4.02271 8.03155 -4.18545 -2.56898 -2.3758 
20109 5 15.1822 4.68195 9.53593 -5.73997 -7.26482 -17.623 
17480 3 19.3808 0.510653 7.95906 -16.3562 -31.8662 11.1962 
17478 2 19.7385 0.13463 9.405 32.6246 34.2532 47.2959 
17479 2 19.7269 4.90401 9.32133 46.2941 113.044 62.6407 
17485 5 21.0972 4.45706 9.83859 4.74579 -16.0357 -17.4305 
17483 5 21.125 0.57616 9.92672 5.02303 -9.97234 -13.5496 
17482 5 18.7273 0.612358 10.4453 0.881052 -3.74553 -5.98293 
17560 5 18.5746 4.39351 10.2378 -1.03956 1.7371 -11.3124 
20011 1 16.7883 2.43064 10.1919 50.1417 46.0848 44.719 
20028 1 16.5417 -1.33752 10.1131 23.4534 17.1179 9.99266 
17481 4 19.613 -1.37684 9.30614 -12.2462 -19.7816 -37.6758 
17800 9 20.2785 3.41394 7.96437 0.301021 -2.8932 -5.47899 
20002 6 16.2002 -1.21507 7.53432 -10.453 -7.52785 13.6895 
20044 7 15.5857 -0.449442 7.68688 4.35657 8.56704 -2.87875 
20043 7 16.3516 -1.12082 6.60323 0.283352 0.199841 -0.846463 
17377 6 19.8786 -1.6773 6.3322 0.247009 -0.137617 -0.0126932 
17415 7 20.5742 -1.92657 6.98281 2.86601 2.47312 2.07985 
14864 7 23.6314 3.83266 7.75133 5.58091 -4.67815 -1.48658 
14825 6 23.2988 2.969 7.82153 -9.27716 -3.82016 1.41345 
14863 7 24.1611 2.53617 7.90018 3.8709 -1.32878 -0.587866 
17476 1 22.5994 2.5974 10.2549 -65.591 -41.2202 62.0848 
14928 3 25.5679 4.59148 8.20809 -31.315 -50.1429 -46.5669 
15246 9 24.7065 0.00657495 8.04332 7.96134 10.7842 20.0303 
14856 3 25.5405 0.383335 8.16649 -12.6072 -14.7959 10.6719 
14929 4 25.6618 2.47021 9.27814 -17.7521 -35.0973 -33.7688 
14851 2 25.7726 0.935136 9.6021 20.194 -189.678 74.8674 
14926 2 25.8313 3.99121 9.61155 27.9464 145.123 88.6925 
14857 5 27.172 0.513951 10.0212 -9.71435 -11.8441 -20.674 
14931 5 27.2703 4.30837 10.1061 -28.198 -11.2591 -17.7941 
14832 1 28.9014 2.41808 10.4207 16.1515 12.6426 58.6098 
14930 5 24.8007 4.37565 10.6576 12.7372 -3.98019 -12.8951 
14934 5 24.7275 0.511689 10.6576 4.61352 -4.054 -1.53037 
17384 1 22.8636 -1.16741 10.5973 -0.6679 4.27809 5.26834 
14848 1 28.7231 -1.43222 10.2624 14.8103 19.3774 -10.565 
14898 6 29.1786 2.45721 7.88738 -13.6486 -15.4046 6.16144 
15247 9 26.3681 4.66526 7.72718 -1.61398 -1.08816 -15.3098 
14826 6 28.1456 -1.3901 7.71182 1.36812 -3.37039 27.2428 
14861 7 27.5228 -0.59177 7.7367 4.99125 5.83681 -2.30056 
14862 7 28.7608 -1.17174 6.9734 0.155345 0.0378174 -0.0679673 
17565 7 23.8543 5.62398 7.62904 12.5105 3.7658 -1.7255 
17491 7 23.3409 -0.830267 7.25909 0.0984303 0.0686162 -0.469219 
12347 6 29.4782 5.3719 8.00631 -15.2373 -7.09972 4.4298 
14939 7 29.2544 3.33895 7.63004 0.443173 -0.923243 -1.21097 
17492 7 24.1978 -1.77871 8.08715 8.17645 2.38946 -6.3426 
17450 6 23.2929 -1.42611 8.02021 -21.5643 -6.83614 19.4103 
25291 7 5.22591 6.53661 7.32751 1.18256 1.65245 -3.23159 
25290 7 3.82687 6.55555 6.86919 -0.690249 1.65417 -4.48896 
25253 6 4.33607 6.71227 7.63615 -9.60695 -11.5617 2.21369 
25517 7 1.84279 7.29014 5.50902 -0.0255615 -0.0576909 -0.551468 
25313 6 1.21101 6.45671 5.78137 6.01606 -5.25345 30.2742 
25362 7 1.19888 10.608 6.31952 -0.0159897 -0.00475252 -0.0236353 
25275 1 4.36027 6.50413 10.1833 4.03196 12.8698 10.0328 
25278 8 0.639374 6.49188 7.63496 52.9003 31.7215 9.22368 
22958 9 3.89074 10.3239 7.2783 -3.48446 1.51554 0.232935 
22732 3 4.70032 10.3548 7.96195 2.45846 -12.6205 13.7567 
25359 5 0.701437 8.49354 11.0939 -9.87883 -10.5029 -17.2032 
25356 5 3.08021 12.146 10.2169 9.95764 0.273338 -12.9259 
25355 5 0.535314 12.2845 10.6518 -2.99751 -5.40186 -8.38665 
25354 4 1.48185 10.2856 9.54639 -13.5321 13.6866 -26.8391 
25353 3 1.39194 12.6945 8.41831 -16.7704 -9.67246 3.29946 
25351 2 1.63225 11.8296 9.72046 39.6469 48.2232 65.7042 
25286 5 2.93236 8.28049 10.0288 -5.563 -15.9136 -19.3424 
25285 4 0.892127 7.85648 8.74192 -20.6124 -18.4197 -4.32013 
25279 2 1.49492 8.71367 9.83417 15.6099 97.331 78.0651 
25259 1 4.86194 10.2149 10.3927 7.4004 9.49253 48.8955 
25327 6 1.60703 9.7444 6.34125 2.326 1.25922 -0.806012 
25363 7 1.38635 9.50649 7.2315 0.508151 2.79224 1.47179 
22807 5 6.5607 12.2849 10.8694 -15.6767 -14.234 -18.2742 
22730 5 6.65234 8.34528 10.5398 -4.6952 -14.6161 -14.2006 
22726 8 6.48614 10.4372 7.49213 -1.65464 17.8073 -26.7294 
22761 6 7.05704 10.8316 5.66761 1.76519 2.49977 6.83163 
22733 4 6.9844 11.7221 8.61372 -11.0236 -12.6702 -2.59183 
22728 4 7.23016 9.05362 8.29312 -12.8797 -20.3131 -5.88334 
22953 7 7.91026 10.1976 5.3838 -0.0661407 0.100392 -0.651956 
22965 7 7.33207 11.8331 5.45166 -0.0485619 0.141917 -0.276972 
22741 7 11.5 7.01103 7.05421 2.60493 -0.0304775 -1.5594 
22700 6 10.8104 6.36788 7.23855 -16.1337 -2.12947 18.427 
22636 1 10.9188 6.69179 9.82281 4.49941 9.44328 12.5647 
22729 4 7.48133 6.61374 9.11192 -11.0442 -8.36504 -27.7426 
22668 7 10.5831 8.59932 7.42923 1.89696 4.35081 -3.18733 
22725 2 7.70374 8.13304 9.39568 26.9846 32.0229 98.5775 
22727 2 7.53968 12.6129 9.75953 17.4465 132.396 80.9293 
22630 6 10.7174 9.56513 7.55044 -8.1646 0.711872 5.28465 
22667 7 11.6785 9.56 7.58776 1.26853 0.735587 -1.30326 
20110 3 13.3722 8.00482 7.87861 -10.9226 -1.16071 -4.10555 
20176 4 13.3404 12.979 8.33811 -6.61101 -6.94243 -4.03043 
20177 4 13.5478 10.5013 8.95979 -6.17883 -0.296503 -16.4429 
20173 2 13.7057 11.9908 9.40771 33.2123 -4.87607 75.958 
20105 2 13.7244 8.93675 9.12343 -2.76396 6.94354 86.6135 
20178 5 12.5598 12.2564 10.4158 -7.54032 -12.66 -22.4611 
20183 5 12.8988 8.51128 10.3587 -3.45093 -11.0866 -7.66537 
22734 5 8.97942 12.4092 10.1072 -12.4036 -12.4568 -17.7169 
22723 1 10.5486 10.4168 9.97488 -3.02651 3.91585 9.8776 
22731 5 9.11607 8.33188 9.85191 -15.6556 -24.4926 -22.5233 
20354 9 13.8366 7.1662 8.02076 -1.20002 -12.3066 -25.2416 
17489 7 15.3685 7.53149 7.27379 -6.22304 -2.27259 -3.73732 
17490 7 16.4114 7.08597 6.51817 -0.225213 0.033552 -0.312236 
17451 6 15.9423 6.78743 7.29642 -18.6862 -17.2145 17.1951 
17555 4 19.5148 6.40419 9.24816 -10.7374 2.46855 -19.0548 
20102 1 16.4765 6.46221 9.86905 10.9889 0.05892 19.3934 
20179 5 15.0791 12.3713 9.86379 2.70891 3.67051 -11.7285 
20111 5 15.0953 8.51182 9.52882 -26.142 -13.9051 -15.2705 
17802 9 19.4832 11.878 7.51898 -0.108048 -0.0985766 0.166701 
17554 3 19.6317 8.68088 7.9737 -1.87081 -5.31479 6.12086 
17801 9 19.3812 9.57046 8.10065 0.632406 12.1775 6.39784 
17558 3 19.3121 11.5602 8.35726 -4.15469 -2.12349 -0.746826 
17552 2 19.7279 7.97853 9.40881 24.6068 57.9527 62.8925 
17553 2 19.7446 12.5897 9.5152 41.6843 42.5364 65.5632 
17559 5 21.2085 12.1329 9.83297 6.98699 -0.438548 -10.6045 
17557 5 21.1128 8.33065 9.93016 1.10969 -11.6408 -16.2457 
17556 5 18.49 8.44005 10.194 12.562 -3.9505 -7.18909 
17631 5 18.754 12.2185 10.6826 1.86321 -5.41219 -1.09765 
20084 1 16.8199 10.2664 10.3615 -12.0252 -5.16674 0.274534 
17566 7 22.7737 6.49197 7.09029 0.0938505 0.0186584 0.0468314 
17525 6 23.2369 6.30614 7.97014 -29.898 -5.95552 17.7866 
15249 9 26.4199 12.3989 7.50271 0.845785 0.688936 0.259976 
14924 1 28.8784 6.30371 10.2599 25.0549 20.5897 -2.83081 
17459 1 22.8153 6.36449 10.4136 -82.6842 -68.2499 43.2589 
17550 1 22.6813 10.1773 10.109 18.9718 17.8131 8.77728 
15248 9 25.0074 7.30471 8.25379 6.71204 8.83262 8.61853 
15002 3 25.5553 12.1132 7.86039 -4.81701 -8.82132 8.87284 
14932 3 25.8534 7.69566 8.37038 -4.60142 -4.14095 1.48759 
15003 4 25.6929 10.0578 9.40228 -8.966 -5.91893 -23.403 
15000 2 25.8234 11.5586 9.33827 29.3672 103.097 73.8029 
14927 2 25.9265 8.52626 9.67582 39.149 66.7327 73.5723 
15005 5 27.2586 12.0307 9.65026 -1.58261 -12.6674 -17.306 
14933 5 27.3368 8.19806 10.2714 9.65722 -13.9761 -17.6279 
15004 5 24.794 12.1885 10.2281 1.14034 3.27276 -12.8125 
14907 1 29.0423 10.186 10.3202 23.4815 18.726 23.0004 
15008 5 24.7476 8.17989 10.6591 15.5089 -0.451628 -2.45226 
14899 6 29.4402 9.94521 7.67407 -3.23841 0.037738 5.38296 
17637 7 24.0129 13.1402 7.48134 1.61089 0.651168 -0.178228 
25427 5 0.471403 16.2254 10.9577 6.01897 -3.67791 -5.79834 
25424 5 3.05777 19.7432 10.2643 -15.1537 -6.32007 -9.9575 
25423 5 0.62854 19.9386 10.7649 4.04565 -4.27016 -10.2435 
25422 4 1.53223 17.8586 9.5283 -9.71774 7.04604 -14.2153 
25421 3 1.35286 20.1653 8.46116 -3.22383 -2.60446 -0.0424584 
25419 2 1.68921 19.4163 9.80763 -41.5964 139.925 65.3787 
25358 5 3.0433 15.9649 10.3935 6.00054 -1.20532 -11.8516 
25352 2 1.62447 16.359 9.9389 57.078 1.70939 36.7798 
25333 1 4.76049 17.9652 10.8964 -5.71026 13.5517 -29.6469 
25357 3 1.27516 15.4524 8.77037 -12.2792 -16.7875 19.2354 
25460 9 1.6173 15.8283 7.87293 0.103743 0.361077 4.18709 
25349 1 4.58657 14.1062 10.6957 7.12788 16.2118 1.19745 
22803 5 6.49129 16.0975 10.8756 1.47535 -0.767419 -0.877706 
22875 5 6.46084 20.071 11.1158 20.3953 8.28112 8.28536 
25459 9 1.48999 13.6574 8.56205 -1.36259 4.16912 -4.29944 
22801 3 7.03055 16.5942 8.55987 -2.24332 -6.98577 4.19506 
2179 7 -0.387305 20.8468 8.22815 14.4238 2.31309 -6.37742 
22805 3 7.32975 19.3599 8.91011 -8.32604 -8.63679 26.1886 
22908 9 7.54595 19.9046 8.12021 0.00852379 0.260145 6.54737 
22774 6 7.84223 14.1301 6.46407 2.03562 1.27241 1.98581 
22907 9 7.21638 17.5067 8.66763 -0.0927756 20.2784 1.75378 
22800 2 7.69826 20.1918 10.1825 71.524 57.4595 36.8358 
22810 7 9.52718 17.6319 7.67339 -2.04146 0.946753 -2.04802 
22775 6 10.3724 17.5576 8.1234 -18.0147 -9.03841 6.86643 
22811 7 11.0269 17.744 7.42304 6.07746 1.05191 -1.30309 
20249 3 13.6146 20.1923 8.5115 -17.5358 -16.1387 19.6474 
22799 2 7.50164 15.6895 9.76752 1.03071 21.5447 71.3329 
20181 4 13.1648 15.598 8.7498 -9.64214 -32.0013 -11.5481 
20250 4 13.59 17.8559 9.69511 -13.7653 6.55635 -28.1855 
20247 2 13.6446 19.4223 9.89672 2.86532 28.7146 69.8283 
20175 2 13.7411 16.3389 9.95052 44.2321 116.006 89.4952 
20255 5 12.7826 16.0392 11.1348 -2.87119 -11.4012 -16.7358 
20251 5 12.5994 19.887 10.8751 -0.778431 -0.0560231 8.82812 
22797 1 10.5866 17.8329 10.6706 3.7036 -1.52509 25.7808 
22804 5 8.85928 16.0465 10.2629 -4.44168 -11.134 -14.4662 
22806 5 9.15709 19.6726 10.6518 26.478 -12.3116 -11.309 
20209 6 12.874 15.0323 5.7533 0.479811 -0.361528 1.52416 
20174 8 12.7095 14.4625 7.54514 27.4783 10.9554 -54.0432 
22802 4 7.35344 14.1712 9.46207 -20.9287 9.4916 -28.6791 
22707 1 10.7485 14.2517 10.2767 11.9566 10.6859 -15.8187 
20180 3 10.8086 14.0423 7.95232 18.2678 -8.84294 5.19612 
20260 7 13.0324 18.8856 6.99744 0.129691 1.33623 1.2556 
20261 7 12.9162 17.3666 7.33817 -0.525718 10.6396 5.59527 
20401 7 13.4229 15.9899 5.62814 -0.162136 0.31174 -1.28522 
20406 9 10.0189 14.4108 7.4707 -1.28766 2.85194 -2.48011 
20413 7 11.9327 15.1884 5.26927 -0.0684512 -0.0247371 -0.439168 
20222 6 12.7014 18.0477 6.67459 -0.745592 0.706167 -0.96993 
22813 7 7.7456 15.0607 6.62462 -0.0712405 -0.049156 0.0577216 
22812 7 7.44152 13.8113 7.30537 0.748199 1.44658 6.45933 
17861 7 18.0327 18.1656 5.18632 -0.0415078 -0.0258008 -0.195481 
17849 7 19.1146 19.332 5.5722 -0.0527097 0.152349 -0.564792 
17657 6 18.7692 18.3451 5.88217 -4.85351 -2.67594 15.0068 
20252 5 14.9691 19.7344 10.5394 -8.42983 -13.4719 -18.0029 
20182 5 15.2166 16.0409 10.213 -4.02323 -20.5169 -14.5401 
17622 8 18.5634 18.0799 7.75046 32.1824 27.9377 -13.8624 
17854 9 15.9449 18.6012 8.0719 -0.297207 2.03977 -3.24393 
17628 3 16.7563 18.0742 8.25458 4.05399 -10.039 9.51212 
17624 4 19.3217 16.6826 8.46567 -7.77027 -11.6335 -3.67389 
17629 4 18.9827 19.4332 8.85904 -13.675 -12.1214 1.68095 
17621 2 19.6951 15.6526 9.54627 46.5238 95.3863 80.5392 
17623 2 19.5501 20.2671 10.0023 53.5803 24.3293 74.5039 
17630 5 21.0316 19.7719 10.2793 12.5659 -2.23379 -15.2223 
17627 5 21.1919 15.89 9.96206 1.15494 -17.8164 -16.3496 
20155 1 16.8424 17.9752 10.6946 1.78797 10.5626 -25.5645 
17626 5 18.7672 15.8963 10.7355 -9.00116 -8.86219 -12.871 
20171 1 16.7158 14.1373 10.3208 4.60983 5.91804 -0.556183 
17625 4 19.606 14.0957 9.12525 -6.0856 7.96172 -11.4471 
17564 7 21.4906 17.2833 7.58657 -0.594636 1.56258 -1.14899 
17703 5 18.6795 20.0258 11.2014 -15.5134 -12.2853 -20.5427 
17709 7 19.905 20.6273 7.34679 2.90844 4.97092 4.57695 
20259 7 15.568 20.8847 8.4035 12.2042 3.52471 -2.42369 
17526 6 22.4132 17.452 7.70597 -7.60036 -6.66576 17.6729 
17563 7 22.8092 16.6576 7.3521 0.270759 0.345966 -1.85818 
17619 1 22.5682 17.9268 10.3236 11.3884 12.9163 -6.91696 
15250 9 25.4259 16.554 7.3496 3.24483 4.15416 70.3474 
15006 3 25.6058 15.7572 7.92658 -17.419 -12.2031 55.3619 
15072 4 25.3173 20.4252 8.40544 -13.1156 -7.86685 -3.19992 
15073 4 25.9599 17.9542 9.15621 -16.0957 5.90261 -35.425 
15069 2 25.8295 19.4844 9.52152 47.8272 195.847 68.0262 
15075 5 27.2671 19.8707 9.91392 4.98215 -3.881 -14.6044 
15001 2 25.8934 16.4473 9.39988 32.2219 22.8411 34.6346 
15007 5 27.2951 15.9854 9.7832 -0.698646 -10.7028 -16.1178 
14980 1 29.1857 17.8209 10.1444 -13.232 -20.6805 16.3254 
15074 5 24.8028 19.6389 10.6176 -5.97119 -5.24272 -19.2914 
15079 5 24.8396 16.1163 10.4638 8.65519 -3.77305 0.122841 
12533 7 25.4571 18.3754 7.23091 -0.380212 4.4177 5.85996 
17532 1 22.9834 14.1035 10.1761 9.53697 11.8523 8.83596 
14998 1 28.6373 13.9834 10.0874 19.9948 24.519 13.4308 
12492 6 25.1645 17.9196 6.43544 -1.26443 -1.7056 -0.889352 
12532 7 24.2391 17.8074 6.45162 -0.0720345 0.00842964 -0.232672 
17636 7 24.2982 14.6547 7.77674 3.17329 -4.70284 -4.46355 
17597 6 27.3956 19.7327 6.47718 -16.2946 -1.11655 1.06926 
17635 7 27.0344 19.9354 7.31032 6.31689 1.23426 -2.39279 
17596 6 23.5563 13.9987 7.66239 -11.43 -1.59192 4.4369 
14974 6 28.7308 14.0837 7.53935 -5.71024 -11.004 7.47267 
17634 7 26.9707 18.9124 6.11254 0.286794 0.570272 -0.152181 
15084 7 28.6931 18.2675 6.90767 0.587593 2.77437 -1.52186 
15012 7 28.1952 14.867 7.30744 1.76819 1.80334 -1.77964 
15044 6 29.2899 17.8272 7.55162 -18.2694 -15.2788 14.6709 
15011 7 29.5706 14.1102 6.99075 5.04649 0.885595 -0.273002 
25461 9 1.63963 21.1191 8.56579 -0.442775 9.03035 -6.08691 
25417 1 4.459 21.7465 10.9217 -16.8741 -19.4774 -32.9791 
24923 5 0.754769 27.5218 10.9484 5.94636 1.72976 -3.27231 
25425 3 1.35108 22.98 8.77836 -10.5979 -8.22949 18.5252 
24927 5 0.559259 23.61 11.1153 15.7967 -1.60736 8.21203 
25426 5 3.10363 23.8017 10.4009 3.60692 -9.26793 -9.19473 
25420 2 1.64879 23.9265 10.0018 35.3142 97.593 58.1359 
25401 1 4.97038 25.5329 10.7242 11.3519 4.69722 -0.143318 
24924 5 3.18735 27.1766 10.4054 -6.29489 -6.27515 -14.0803 
24922 4 1.38256 25.4386 9.75254 -16.4216 10.3999 -16.9931 
24919 2 1.7823 26.9563 9.95451 1.02267 145.212 61.1171 
24921 3 1.55556 27.7248 8.56562 -3.26038 -0.955321 8.31704 
25462 9 1.60156 23.3783 7.96981 -0.0550172 0.116615 1.81426 
22871 5 6.64021 23.6959 10.9095 4.94799 -4.71447 -4.42267 
25451 9 2.36751 27.8615 8.13061 0.0525107 0.48201 1.54731 
22375 5 6.78156 27.3777 11.2762 2.08828 -3.94398 -3.52715 
20355 9 13.7553 21.1037 8.67011 -2.60258 21.2811 -0.956603 
22873 3 7.36095 26.8242 8.94079 -1.63501 -2.92514 22.5765 
22910 9 7.83453 27.1872 8.16884 0.0145871 0.301728 5.19998 
22881 7 10.5673 22.2037 7.78641 0.17556 0.146622 -0.593771 
22880 7 12.0072 21.7432 8.22322 12.0825 4.38253 -4.61328 
22869 3 7.56442 24.0265 8.5961 -0.859987 -1.29959 0.709283 
22842 6 11.0399 21.8185 8.50693 -11.5853 -8.37295 2.8956 
22909 9 7.42422 24.9915 8.72358 -0.306268 9.50264 -0.60925 
22870 4 7.80675 21.6814 9.76784 -9.72723 13.2176 -13.9287 
22781 1 10.8959 21.6885 11.0129 -26.931 -19.2291 11.7652 
22868 2 7.76545 27.7412 10.1816 37.8843 97.8396 40.5178 
22867 2 7.78902 23.2324 9.92461 53.8728 189.598 69.9583 
22381 7 12.0152 26.341 8.4485 11.0559 9.20582 -1.38024 
20253 3 13.4682 23.4016 8.82795 -29.3517 -27.5781 7.04329 
22380 7 10.8121 26.2531 7.54966 0.0743542 0.106245 0.0954497 
22342 6 11.2091 25.8188 8.3988 -19.4287 -2.78668 29.8155 
20317 3 13.3219 27.8427 9.08682 -10.1272 -13.0141 -8.18883 
20248 2 13.7696 24.0294 10.2263 8.10359 3.51088 111.076 
20318 4 13.624 25.5447 10.0164 -29.0453 -19.2022 -43.7784 
20315 2 13.7788 27.0543 10.3348 51.139 -14.6683 83.0531 
22865 1 10.6865 25.3992 10.9226 12.7048 11.3442 31.9625 
22872 5 9.17462 23.6871 10.462 5.30309 -15.51 -13.8217 
22874 5 9.24947 27.6706 10.5948 6.68763 -9.63906 -10.1278 
20356 9 12.5954 23.6209 8.49206 10.2865 3.86233 -9.90395 
25431 7 14.1509 26.52 7.83751 1.06735 4.73633 6.6707 
20323 5 12.8525 23.6161 11.429 2.30349 -7.93309 0.550227 
25430 7 14.093 24.9955 7.86813 1.6694 4.7305 10.2513 
25395 6 14.4016 25.7329 7.27378 -0.13937 0.0911014 -0.152931 
20258 7 15.2294 22.3163 8.12146 1.35512 0.109526 -1.47785 
20223 6 16.0015 21.7513 8.2238 -7.2878 -1.20591 9.25247 
20245 1 16.5342 21.695 10.8038 16.5492 20.8771 33.9687 
17698 4 19.4354 21.7483 9.56107 -11.9841 -3.9478 -28.2937 
20320 5 15.2214 27.4242 10.856 4.3362 -11.305 -15.299 
20254 5 15.1801 23.5949 10.561 -15.929 -11.4621 -20.6964 
20329 7 17.2434 26.6466 8.28058 4.00085 3.21568 -3.7116 
20328 7 16.0419 25.8023 7.61998 1.70271 -0.0142948 -0.106783 
17803 9 18.6355 24.4714 8.19816 9.13046 9.22345 -0.637387 
20290 6 16.6573 25.8385 8.42977 -27.1122 -4.75395 8.64511 
17697 3 19.4666 23.9299 8.24968 -7.34904 -15.4832 7.52952 
17701 3 18.7572 27.5768 9.07536 -11.2518 -29.575 -3.15244 
17695 2 19.6311 23.298 9.64847 1.53771 6.36591 78.4374 
17696 2 19.6976 27.9701 10.2409 33.1013 100.135 91.9002 
17700 5 20.9899 23.6351 10.1729 -17.4107 -7.87863 -19.3028 
17702 5 21.0953 27.3466 10.1236 7.85099 -13.3129 -20.9857 
17699 5 18.7076 23.7838 10.7613 -3.03017 -4.32013 -2.36306 
20229 1 17.0048 25.6018 10.9426 18.183 14.7187 -22.9789 
17708 7 20.0702 22.1005 7.0657 -0.241561 1.38658 0.807202 
17670 6 20.1319 21.2549 6.64674 -0.741489 0.864972 -1.29254 
17707 7 20.7868 25.2363 7.6314 4.68338 4.9201 -0.0675133 
17706 7 21.1787 26.5559 8.43819 0.159542 6.51571 6.82603 
17671 6 21.5933 25.7538 7.94146 -0.453004 -4.81435 5.30376 
17804 9 18.1596 28.2261 8.79174 4.28697 -0.356851 -3.14692 
15302 9 22.12 22.0167 7.2663 -10.7588 2.27165 -0.630497 
15082 7 28.9341 21.4367 6.98265 -0.126949 1.92051 -3.10922 
15309 7 26.1711 21.1856 5.56242 -0.0518961 0.354053 -0.58211 
15297 7 25.7773 22.9358 5.36905 0.0246702 0.421731 0.0401883 
15076 3 22.8653 21.7306 7.945 5.09652 -10.2727 6.4553 
15105 6 25.4296 21.9972 5.7434 2.52602 2.8065 8.78842 
15067 1 28.5009 21.8246 10.3102 7.82903 14.4563 40.1979 
17603 1 22.8719 21.8054 10.3091 42.0627 31.2828 67.2773 
15070 8 24.6898 21.8654 7.53391 8.60711 21.9787 -5.43346 
15157 7 24.761 24.7113 6.5409 0.0888699 1.41735 -2.26004 
17693 1 22.4585 25.6458 10.3024 35.4373 46.9161 71.6549 
15118 6 24.3516 25.0692 5.80024 0.21631 -0.016292 -0.0794134 
15156 7 23.4675 25.4068 6.08223 0.34791 0.0658077 -0.0167674 
12750 9 28.7793 27.0604 8.02173 -18.145 -1.29383 -3.49444 
15145 3 25.8709 28.1424 8.32624 -25.0354 -10.0384 24.2783 
15077 4 25.2347 23.1977 8.50469 -14.7368 -21.7854 -11.4469 
15146 4 25.5466 25.6818 9.29943 -7.70584 17.8781 -15.7027 
15143 2 25.8227 27.2278 9.63665 33.6546 57.2994 43.2336 
15071 2 25.6377 24.1622 9.58877 42.0789 137.379 70.7483 
15078 5 27.0823 23.775 9.8664 3.39942 -1.69309 -12.5858 
15148 5 27.2019 27.5255 10.2775 11.3335 -13.1286 -16.2118 
15051 1 28.9278 25.6837 10.4438 0.415527 13.1493 50.2875 
15147 5 24.7278 27.7419 10.5663 3.74205 -1.76991 -8.2312 
12524 3 29.1596 26.0649 8.01414 -11.2862 -1.28734 8.96331 
15045 6 29.2043 21.7754 7.82857 -18.4778 -11.0842 5.48348 
15251 9 25.5134 27.6474 7.63837 -0.0872881 -0.2907 15.5242 
15151 5 24.6677 23.8201 10.7274 -4.82732 -8.48966 -16.5879 
25272 7 0.685443 4.39041 16.1981 0.884938 -1.31353 1.6442 
25198 5 4.5419 2.55475 12.6561 -16.5108 -9.74767 -9.79409 
25195 5 4.3158 -1.09258 12.7632 -1.03247 -3.87426 3.90246 
25511 9 -0.0480555 1.14327 16.1216 -26.7753 3.07745 -4.03825 
22635 1 6.05896 0.692999 12.8525 0.146192 7.45751 -4.88856 
25268 5 2.06322 2.89899 12.9931 0.9527 -9.91843 -22.9144 
25258 1 0.250924 4.4912 12.7638 -0.875453 0.435263 11.3232 
25207 1 0.476342 0.786529 13.0733 14.161 41.7083 27.093 
25191 2 3.47612 3.03985 13.5769 17.6441 60.7963 64.6184 
25263 4 3.57926 4.53329 13.9916 -23.4601 2.01908 -24.324 
25197 4 3.26023 2.0922 14.7531 -13.8246 -23.0024 -5.27919 
25192 4 3.04502 -0.482259 14.848 -9.72242 -17.2477 -8.16766 
25196 3 0.681657 1.06245 15.4296 4.58291 -17.4493 11.0279 
25190 8 2.5245 0.875285 15.8426 -28.2374 7.63549 -32.8514 
25240 6 2.856 0.387876 17.6661 4.60406 -2.84963 16.3539 
25519 7 2.96836 -0.674479 17.8918 -2.41598 4.43717 -5.66188 
25507 7 2.0384 0.621638 18.3724 7.6771 0.782054 -8.29888 
25308 6 0.173654 4.4676 15.3938 -25.2314 -6.83976 15.5444 
25270 6 1.64431 4.64878 18.0113 -16.7043 25.1741 -12.6765 
22655 1 6.37544 4.67075 12.8239 0.711337 8.00266 -7.96275 
25194 5 1.89442 -1.62182 13.1754 -0.18453 -13.5461 -17.8679 
25189 2 3.31878 -1.5892 13.8009 41.9384 142.568 90.6867 
25309 7 1.80668 5.46847 18.5912 0.0718233 18.8691 8.13131 
22683 6 6.04363 0.429507 15.4558 -22.4848 4.82574 2.37285 
22644 3 6.82061 4.65041 15.0489 -10.8952 -14.611 -0.816233 
22650 7 6.12059 -0.533468 15.6964 3.32867 6.54274 -5.03419 
22959 9 6.14624 4.46648 15.7898 -40.2912 3.26035 -2.84318 
22649 6 4.71897 2.95673 17.2299 -21.8225 -20.1211 -3.69588 
22687 7 6.28282 0.593667 18.6982 -3.06009 3.17628 -6.5416 
25310 7 2.31134 4.00151 18.2659 1.52031 2.27006 0.358367 
22651 7 6.42979 0.932757 16.1724 5.41778 0.211446 0.851459 
22685 7 4.1026 2.69949 17.9616 1.63104 5.95618 -0.522777 
22760 7 5.7256 3.6874 18.611 6.0334 6.8461 9.84218 
22684 7 4.32345 2.99229 16.3679 -2.75065 2.59482 3.1859 
20062 7 6.67239 2.40834 17.4714 9.22536 1.45525 -6.79953 
25312 7 0.22145 4.29689 19.0371 7.75248 -5.34504 -1.27371 
22686 7 4.80202 0.27036 18.5458 -4.22656 2.88015 -5.53397 
25446 6 -0.249073 19.7225 15.8086 -30.4934 -14.0804 18.5376 
25201 6 -0.162126 1.00168 19.0556 -34.1783 -23.7126 -4.95334 
25237 7 -0.320173 1.93555 19.0195 4.32758 -0.355366 -5.71894 
17655 7 17.5993 17.4785 18.9155 3.48265 3.53478 -3.81758 
20023 6 7.24472 1.70301 17.7684 -63.607 -18.4811 -18.2258 
20061 7 7.69122 2.15313 18.521 -6.66959 2.20108 -14.6638 
20101 7 8.81608 0.541617 16.9755 3.09221 0.0900157 -2.05351 
22931 9 9.92424 -0.75721 15.7279 4.48309 3.36126 106.285 
22643 5 10.3472 2.57234 12.1955 -2.95308 -4.79505 -8.44862 
20083 1 12.0539 4.57824 12.2941 14.0676 8.23893 21.4732 
22642 5 7.78438 2.32799 12.6693 -1.75704 -7.67975 -18.4324 
22572 5 10.3915 -1.19034 12.4814 0.624023 -7.82195 -2.77734 
22647 5 8.01803 -1.15376 13.3887 12.5548 -13.5514 -17.0078 
20029 1 12.4935 0.818447 12.5759 2.06337 6.22174 -9.00548 
20095 5 13.8672 2.81253 13.0198 0.346299 -12.4039 -12.4137 
22637 2 9.23854 2.21284 13.1776 45.7927 181.817 73.3708 
22565 2 9.47766 -0.798971 13.6553 41.5406 39.2486 58.1446 
22641 4 9.6135 0.790931 13.697 -24.0007 27.7716 -27.3763 
22640 4 9.10375 3.21619 14.2882 -11.8802 -29.3996 -20.6839 
20060 6 12.1899 1.0053 15.1628 -11.0747 -6.28661 7.35713 
20025 7 11.2332 0.763273 15.2834 8.22299 2.32735 -2.17222 
22638 8 8.66537 4.46615 15.4128 -66.2409 -9.73989 -111.518 
20024 7 12.5157 0.932183 16.0804 4.94326 1.25264 5.21281 
22688 6 9.36448 4.08049 17.1397 -3.87832 -6.04957 -8.69559 
20130 6 9.63757 0.0533346 17.1316 -2.29726 -5.56425 -7.6059 
20016 5 13.8732 -1.10957 13.0216 3.04035 -14.9437 -19.4694 
20100 7 9.36117 -0.568605 17.8417 -0.0580824 2.55566 10.5055 
22571 3 9.99879 -1.44614 14.9932 -13.0958 -15.4515 22.9257 
20135 7 12.2092 1.45897 18.7119 3.55149 1.78187 1.52536 
22955 7 8.97489 3.2598 17.6833 -2.98538 -17.6692 -69.2184 
25513 9 -0.246367 9.58283 19.1632 -4.58641 6.50834 -2.2039 
22967 7 9.30175 4.8508 17.8931 -2.12003 -0.669215 -27.8896 
20379 9 14.1378 2.00772 15.2551 9.57632 9.83322 21.9504 
20098 7 12.1952 4.30779 19.0097 1.16151 1.51689 -2.61299 
20022 6 13.7849 1.00564 17.5204 -21.9887 4.73762 -17.7417 
20063 7 14.516 1.34346 17.1154 -9.80711 -1.63937 1.94763 
20064 7 14.1379 0.168881 17.9863 1.28649 15.7751 9.59304 
20365 9 14.8051 -1.85466 18.6567 0.866875 18.381 25.1418 
12476 7 29.8446 18.5427 18.9925 3.85826 0.934639 -1.45332 
20378 9 15.4007 0.0444891 14.8487 3.72783 77.4802 25.4896 
20012 2 15.2359 -1.61828 13.5115 10.6965 47.0271 72.5255 
17469 5 19.9364 -1.30131 13.4326 4.99818 -10.7809 -10.326 
20017 5 16.2815 -1.21496 12.5395 8.15137 -0.65452 -7.17474 
20020 5 16.2894 2.4578 12.6312 -1.45066 -5.08048 -3.35342 
17477 1 18.4308 4.50707 12.7514 53.8858 46.564 54.5989 
17458 1 18.218 0.637135 12.871 44.2944 33.8255 10.2575 
17464 5 19.9587 2.61017 13.0923 -9.16045 -13.3002 -16.0934 
20014 3 15.3481 -0.927596 14.9324 -18.3217 -6.57716 25.3032 
20013 2 15.2355 2.86552 13.6686 20.822 9.55993 56.2255 
20089 4 15.4847 4.41259 13.8828 -20.3052 16.9675 -23.2447 
17460 2 21.2934 2.30374 13.8302 52.039 210.947 56.6869 
17386 2 21.2555 -0.760946 14.0881 51.948 66.5159 48.3484 
20019 3 15.0389 1.99986 15.0162 -20.6381 -1.38029 37.9523 
17466 6 17.867 0.678438 15.4445 -24.296 -19.7579 11.681 
17494 7 18.5359 0.999539 16.0222 1.54722 3.93962 -5.72083 
17493 7 17.073 1.21053 15.6224 11.1216 3.35506 -4.83989 
17471 6 19.0976 2.83036 17.122 -20.759 -7.37961 -10.5063 
17510 7 18.5202 2.18606 17.5844 0.275272 3.78635 1.44927 
17509 7 19.9183 2.70851 17.5384 -10.5403 -0.125405 -4.63849 
17463 4 21.2166 0.803669 14.1626 -8.4479 15.7656 -23.9673 
17508 6 18.0143 4.72103 15.2513 -22.1699 -13.5304 16.9748 
14959 7 21.1897 -0.606045 18.4292 -1.69533 5.55114 12.5184 
14960 7 21.3805 0.785476 18.1778 -2.15817 -11.1578 4.92819 
17391 3 21.5008 -1.4062 15.4812 -10.6857 -19.3939 16.3591 
17825 9 21.3962 -0.683463 16.1713 -2.68521 8.60352 103.453 
17462 3 21.2144 3.19277 15.1076 -10.3398 -16.0141 -1.96862 
17826 9 20.3647 2.95335 15.5623 0.284237 -3.67732 -31.4541 
17583 7 17.9902 3.71419 18.7127 1.53864 -0.145196 -1.18983 
17582 7 16.606 3.49205 19.2803 -17.8663 -5.40247 -10.0554 
17827 9 21.307 5.07553 15.2027 0.190285 31.9209 -3.45444 
17472 7 18.2301 4.17751 16.0905 4.49838 9.36904 7.32488 
17473 7 17.0256 4.62407 15.2451 11.8318 0.550481 -0.27842 
17503 6 17.3569 0.686213 19.114 -28.2521 -8.17568 6.6816 
15136 6 23.2273 27.1546 19.2135 -21.3793 -8.28441 -4.89088 
17474 7 17.2281 -1.64011 15.4862 11.1959 -5.692 -6.82272 
14918 6 21.6046 -0.0259366 17.7176 14.2096 -21.3526 -10.2428 
20051 3 14.9836 -1.07708 19.3139 -20.2339 -22.6861 4.71405 
17456 7 16.7445 -0.0677392 18.883 15.1356 0.666295 -1.62634 
14905 7 22.7837 5.15792 18.9122 1.49207 -0.963547 -9.64778 
15310 7 27.8056 -0.618132 17.0379 -3.50491 -1.70261 2.4689 
17392 5 22.3788 -1.113 13.0479 14.2334 -0.724087 9.30621 
14833 2 27.436 -1.7351 13.7653 21.6637 44.6443 76.9675 
14837 5 26.0685 -1.25524 13.3193 -2.21281 -12.0091 -14.6275 
14835 3 28.0021 -1.09927 15.0988 -7.17765 0.84676 1.76655 