ITEM: TIMESTEP
200000
ITEM: NUMBER OF ATOMS
25517
ITEM: BOX BOUNDS pp pp ff
-3.8959205201285124e-01 6.0088135642019459e+01
-1.9452389155355383e+00 5.9115524189537531e+01
-1.2206056431032383e+01 1.1390111600702880e+02
ITEM: ATOMS id type x y z v_stressx v_stressy v_stressz 
25292 7 5.89857 3.03966 7.5916 -2.43171 -8.50636 -6.15606 
25293 7 5.98077 1.53035 7.7064 -1.88298 -5.88702 -1.84274 
25252 6 5.35811 2.25094 7.51796 -6.36776 -3.25073 0.176742 
25287 5 0.61597 0.755495 10.7564 7.59978 -1.46918 5.57568 
25283 5 2.94291 4.2301 9.842 11.2665 6.56466 -12.8877 
25281 4 1.3887 2.44216 9.07367 -13.5114 1.945 -16.9305 
25280 4 1.07853 5.00258 8.46007 -12.6782 -8.50996 -6.4989 
25277 2 1.45655 3.94107 9.49571 51.5788 38.3578 79.7332 
25215 5 2.99957 0.588718 9.72621 -14.6774 -9.97494 -11.9137 
25209 2 1.59287 0.935181 9.44522 7.01483 -56.8365 74.0986 
25188 1 4.8243 2.58953 9.97468 5.41919 1.54043 14.2558 
25214 3 0.796635 0.0137284 8.44439 -2.2225 -4.58861 1.89268 
25282 5 0.520916 4.37471 10.6565 -15.3388 -14.4384 -18.888 
25458 9 1.40812 -0.435335 7.83607 0.0219112 2.07392 1.70814 
25206 1 4.52732 -1.17961 10.115 34.9855 38.1491 20.4958 
22660 5 6.52822 0.875659 10.2203 -1.56003 -5.57883 -17.0609 
22735 5 6.623 4.87348 10.5536 2.41365 -9.25206 -14.4185 
25505 7 1.83983 5.65447 5.50835 -0.0548329 -0.158464 -0.295705 
15277 9 28.0214 25.8256 16.0924 0.310396 9.01314 3.21185 
22662 3 7.17647 4.29529 8.22411 -12.2781 -23.2555 -18.981 
22658 3 7.30314 0.346889 7.89736 -14.9862 -15.3033 -11.581 
22905 9 7.65252 -0.485879 7.46068 0.0217292 -0.414099 -4.47507 
22906 9 7.50322 4.57024 7.35908 -2.70149 4.33436 9.83862 
20115 7 11.1372 2.292 6.49758 0.445645 -0.0074441 -1.15335 
22656 2 7.7059 0.365729 9.40584 22.6788 74.0752 60.9087 
20116 7 12.1136 2.88755 7.40659 19.637 6.70866 2.48621 
20078 6 11.1398 2.86581 7.23657 -15.8858 -11.6625 1.82837 
20106 3 13.741 4.72985 7.46261 -15.6752 -11.123 42.7544 
22657 2 7.60419 5.1024 9.41016 54.6254 -15.5367 22.2997 
20036 3 13.619 0.47741 7.57109 -16.5225 -19.4077 17.2293 
20107 4 13.6664 2.6833 8.8298 -18.005 -14.2111 -34.165 
20104 2 13.8784 4.18168 8.97251 31.7988 36.1896 95.9068 
20031 2 13.7132 1.1448 8.96008 62.5516 163.763 14.1655 
20108 5 12.6966 4.70757 9.81807 14.5734 12.0077 1.37283 
20112 5 12.4932 0.846951 9.91178 10.9856 -0.452887 5.42196 
22654 1 10.4859 2.78478 9.68506 11.2668 10.4217 11.4429 
22661 5 9.03983 1.11007 9.56315 -7.45057 -6.59274 -16.1398 
22663 5 9.10858 4.7108 9.73761 4.55063 -12.8293 -15.1088 
22563 1 10.886 -1.13469 10.1589 0.0878409 -0.471591 -5.27373 
22659 4 7.7627 -1.12896 9.68153 -9.44343 -34.5623 -34.1191 
22629 6 11.3751 -1.065 7.76545 -16.8552 5.08942 2.47798 
22669 7 11.9249 -0.207968 7.44815 1.31932 5.20255 -1.29244 
20352 9 13.8605 1.22514 6.87465 0.702246 12.5316 14.5949 
20189 7 14.2777 3.18994 6.51456 0.26987 13.5431 8.35774 
20353 9 14.543 5.23857 7.22704 7.73665 13.2271 16.7642 
20148 6 14.5671 2.45013 5.87332 0.144695 0.0567409 0.0974212 
22740 7 11.2703 5.5881 6.8279 3.28337 1.48167 -1.1544 
22738 7 8.76742 5.41578 5.90114 -0.685073 0.692014 -1.34783 
22701 6 7.85394 5.37142 5.69312 0.475764 -0.297317 7.91575 
22739 7 7.886 4.86164 4.87022 -0.0111319 0.0202338 0.00822534 
22670 7 11.9327 -1.89861 7.72342 1.08171 1.64804 -5.25347 
20188 7 15.4435 2.20345 6.22553 0.814507 -0.134615 0.0812978 
20037 5 15.0057 0.565552 9.66218 -1.00721 -6.92042 -13.0925 
20118 7 17.8719 2.63796 7.70159 5.66924 -0.340721 -2.97267 
20117 7 17.6995 1.17882 7.44002 3.05687 2.5215 -4.77978 
17799 9 19.455 -0.241526 7.33338 0.341644 6.58463 17.8453 
20077 6 17.1284 2.01775 7.60787 -23.2804 2.43859 27.1538 
17484 3 19.536 4.02271 8.03155 -4.21753 -2.57373 -2.35481 
20109 5 15.1822 4.68195 9.53593 -5.92182 -7.28726 -17.9659 
17480 3 19.3808 0.510653 7.95906 -16.6193 -31.7584 11.5338 
17478 2 19.7385 0.13463 9.405 33.5893 34.3888 49.5181 
17479 2 19.7269 4.90401 9.32133 46.7438 113.446 61.2045 
17485 5 21.0972 4.45706 9.83859 4.74609 -16.1265 -16.6206 
17483 5 21.125 0.57616 9.92672 5.0205 -9.93757 -13.2254 
17482 5 18.7273 0.612358 10.4453 0.925085 -3.77066 -5.96113 
17560 5 18.5746 4.39351 10.2378 -1.08255 1.69546 -11.2852 
20011 1 16.7883 2.43064 10.1919 49.1537 45.925 34.001 
20028 1 16.5417 -1.33752 10.1131 23.5732 17.0784 10.6508 
17481 4 19.613 -1.37684 9.30614 -12.6978 -19.613 -38.6231 
17800 9 20.2785 3.41394 7.96437 0.310073 -2.89179 -5.48603 
20002 6 16.2002 -1.21507 7.53432 -10.3284 -7.50624 14.0311 
20044 7 15.5857 -0.449442 7.68688 4.27947 8.52593 -3.22148 
20043 7 16.3516 -1.12082 6.60323 0.282007 0.200929 -0.848675 
17377 6 19.8786 -1.6773 6.3322 0.247873 -0.140188 -0.00877029 
17415 7 20.5742 -1.92657 6.98281 2.86093 2.50482 2.03818 
14864 7 23.6314 3.83266 7.75133 5.58978 -4.68162 -1.41192 
14825 6 23.2988 2.969 7.82153 -9.28363 -3.82662 1.31977 
14863 7 24.1611 2.53617 7.90018 3.88358 -1.31818 -0.536828 
17476 1 22.5994 2.5974 10.2549 -65.6258 -41.048 48.3748 
14928 3 25.5679 4.59148 8.20809 -31.3898 -50.2771 -46.9552 
15246 9 24.7065 0.00657495 8.04332 7.98559 10.7687 20.0348 
14856 3 25.5405 0.383335 8.16649 -12.6207 -14.7684 10.728 
14929 4 25.6618 2.47021 9.27814 -17.75 -35.0644 -33.4504 
14851 2 25.7726 0.935136 9.6021 20.0664 -190.308 71.9856 
14926 2 25.8313 3.99121 9.61155 28.4593 146.806 88.8517 
14857 5 27.172 0.513951 10.0212 -9.6327 -11.7513 -19.9255 
14931 5 27.2703 4.30837 10.1061 -28.3426 -11.6139 -17.6259 
14832 1 28.9014 2.41808 10.4207 15.2387 12.0594 55.0395 
14930 5 24.8007 4.37565 10.6576 12.9613 -4.4543 -12.34 
14934 5 24.7275 0.511689 10.6576 4.80391 -3.50496 0.398288 
17384 1 22.8636 -1.16741 10.5973 -2.21584 4.24811 -22.5952 
14848 1 28.7231 -1.43222 10.2624 14.7645 18.6216 0.224664 
14898 6 29.1786 2.45721 7.88738 -13.6688 -15.3017 6.20523 
15247 9 26.3681 4.66526 7.72718 -1.61307 -1.09081 -15.3031 
14826 6 28.1456 -1.3901 7.71182 1.17045 -3.56263 25.9758 
14861 7 27.5228 -0.59177 7.7367 5.0269 5.87024 -2.13875 
14862 7 28.7608 -1.17174 6.9734 0.155023 0.037972 -0.0611126 
17565 7 23.8543 5.62398 7.62904 12.5204 3.75289 -1.52718 
17491 7 23.3409 -0.830267 7.25909 0.0947871 0.0707198 -0.440926 
12347 6 29.4782 5.3719 8.00631 -15.1821 -7.1681 4.28463 
14939 7 29.2544 3.33895 7.63004 0.442486 -0.926003 -1.21478 
17492 7 24.1978 -1.77871 8.08715 8.15714 2.44636 -6.41916 
17450 6 23.2929 -1.42611 8.02021 -21.373 -6.92257 19.4555 
25291 7 5.22591 6.53661 7.32751 1.1871 1.65576 -3.10187 
25290 7 3.82687 6.55555 6.86919 -0.683723 1.68039 -4.37026 
25253 6 4.33607 6.71227 7.63615 -9.66019 -11.6675 1.74429 
25517 7 1.84279 7.29014 5.50902 -0.0258177 -0.0549161 -0.553782 
25313 6 1.21101 6.45671 5.78137 6.03975 -5.52421 30.3271 
25362 7 1.19888 10.608 6.31952 -0.0180539 -0.0218406 -0.0151749 
25275 1 4.36027 6.50413 10.1833 4.16422 12.9313 8.1848 
25278 8 0.639374 6.49188 7.63496 52.8624 32.5472 10.0296 
22958 9 3.89074 10.3239 7.2783 -3.48334 1.48013 0.298067 
22732 3 4.70032 10.3548 7.96195 2.37196 -12.6023 13.5378 
25359 5 0.701437 8.49354 11.0939 -9.94448 -10.268 -16.0848 
25356 5 3.08021 12.146 10.2169 9.63319 0.0119074 -12.6622 
25355 5 0.535314 12.2845 10.6518 -2.80988 -5.54683 -8.49711 
25354 4 1.48185 10.2856 9.54639 -13.9456 13.523 -26.4003 
25353 3 1.39194 12.6945 8.41831 -11.4411 -7.2229 5.3575 
25351 2 1.63225 11.8296 9.72046 42.2044 49.0606 65.6202 
25286 5 2.93236 8.28049 10.0288 -5.57721 -15.83 -18.4419 
25285 4 0.892127 7.85648 8.74192 -20.6528 -18.7804 -4.59222 
25279 2 1.49492 8.71367 9.83417 16.8987 96.2814 75.425 
25259 1 4.86194 10.2149 10.3927 8.15995 9.57053 58.9542 
25327 6 1.60703 9.7444 6.34125 2.36228 1.44736 -0.877255 
25363 7 1.38635 9.50649 7.2315 0.478267 2.71179 1.61101 
22807 5 6.5607 12.2849 10.8694 -15.4647 -14.5162 -17.6204 
22730 5 6.65234 8.34528 10.5398 -4.55853 -14.5722 -12.298 
22726 8 6.48614 10.4372 7.49213 -1.58606 17.8476 -25.9983 
22761 6 7.05704 10.8316 5.66761 1.77151 2.51322 6.813 
22733 4 6.9844 11.7221 8.61372 -11.029 -12.7106 -2.66604 
22728 4 7.23016 9.05362 8.29312 -12.8964 -20.2939 -5.86064 
22953 7 7.91026 10.1976 5.3838 -0.0664821 0.100096 -0.652004 
22965 7 7.33207 11.8331 5.45166 -0.0489687 0.141571 -0.276631 
22741 7 11.5 7.01103 7.05421 2.60487 -0.0300191 -1.54065 
22700 6 10.8104 6.36788 7.23855 -16.0832 -2.11734 18.2193 
22636 1 10.9188 6.69179 9.82281 4.08841 9.27374 11.3771 
22729 4 7.48133 6.61374 9.11192 -11.3504 -8.41536 -27.7448 
22668 7 10.5831 8.59932 7.42923 1.91244 4.36078 -3.15159 
22725 2 7.70374 8.13304 9.39568 27.3793 31.3699 97.1803 
22727 2 7.53968 12.6129 9.75953 16.9719 132.956 78.47 
22630 6 10.7174 9.56513 7.55044 -8.20328 0.695569 5.29297 
22667 7 11.6785 9.56 7.58776 1.26979 0.739448 -1.32535 
20110 3 13.3722 8.00482 7.87861 -10.8938 -1.12185 -3.5025 
20176 4 13.3404 12.979 8.33811 -6.5459 -6.97138 -3.97043 
20177 4 13.5478 10.5013 8.95979 -6.13573 -0.275193 -16.0769 
20173 2 13.7057 11.9908 9.40771 33.2843 -5.44236 75.8306 
20105 2 13.7244 8.93675 9.12343 -1.93846 6.76185 84.5893 
20178 5 12.5598 12.2564 10.4158 -7.75941 -12.3607 -22.5836 
20183 5 12.8988 8.51128 10.3587 -3.70128 -11.0992 -7.08894 
22734 5 8.97942 12.4092 10.1072 -12.3465 -12.5994 -16.989 
22723 1 10.5486 10.4168 9.97488 -2.93762 3.99359 9.5446 
22731 5 9.11607 8.33188 9.85191 -15.607 -24.3813 -21.7456 
20354 9 13.8366 7.1662 8.02076 -1.15023 -12.3225 -25.5734 
17489 7 15.3685 7.53149 7.27379 -6.21532 -2.28366 -3.80703 
17490 7 16.4114 7.08597 6.51817 -0.225077 0.0332407 -0.313743 
17451 6 15.9423 6.78743 7.29642 -18.7618 -17.1697 17.4761 
17555 4 19.5148 6.40419 9.24816 -10.7831 2.52969 -18.8507 
20102 1 16.4765 6.46221 9.86905 10.819 0.236445 19.0939 
20179 5 15.0791 12.3713 9.86379 2.72428 3.81136 -11.5532 
20111 5 15.0953 8.51182 9.52882 -26.4017 -13.897 -14.8696 
17802 9 19.4832 11.878 7.51898 -0.10674 -0.0989864 0.176813 
17554 3 19.6317 8.68088 7.9737 -1.86571 -5.30134 6.07207 
17801 9 19.3812 9.57046 8.10065 0.631812 12.1691 6.48134 
17558 3 19.3121 11.5602 8.35726 -4.18462 -2.0572 -0.905186 
17552 2 19.7279 7.97853 9.40881 24.6087 58.0611 61.8426 
17553 2 19.7446 12.5897 9.5152 42.4249 43.2767 69.8169 
17559 5 21.2085 12.1329 9.83297 7.00823 -0.487289 -10.7116 
17557 5 21.1128 8.33065 9.93016 0.963874 -11.5911 -15.7513 
17556 5 18.49 8.44005 10.194 12.7053 -4.05221 -7.62618 
17631 5 18.754 12.2185 10.6826 2.08218 -5.49793 -3.6539 
20084 1 16.8199 10.2664 10.3615 -10.9375 -4.07356 -0.946391 
17566 7 22.7737 6.49197 7.09029 0.0936842 0.0182059 0.0503121 
17525 6 23.2369 6.30614 7.97014 -29.9758 -6.00723 16.8482 
15249 9 26.4199 12.3989 7.50271 0.845656 0.688034 0.258088 
14924 1 28.8784 6.30371 10.2599 25.2573 20.3964 11.0575 
17459 1 22.8153 6.36449 10.4136 -83.0591 -68.4677 42.6254 
17550 1 22.6813 10.1773 10.109 19.092 17.8395 8.43864 
15248 9 25.0074 7.30471 8.25379 6.71309 8.84147 8.72209 
15002 3 25.5553 12.1132 7.86039 -4.85645 -8.79671 8.96597 
14932 3 25.8534 7.69566 8.37038 -4.62725 -4.1524 1.3628 
15003 4 25.6929 10.0578 9.40228 -9.06338 -5.92033 -22.9953 
15000 2 25.8234 11.5586 9.33827 29.6385 102.978 71.1532 
14927 2 25.9265 8.52626 9.67582 39.4101 66.3741 72.4302 
15005 5 27.2586 12.0307 9.65026 -1.60612 -12.6776 -16.4991 
14933 5 27.3368 8.19806 10.2714 9.60751 -13.9508 -17.4319 
15004 5 24.794 12.1885 10.2281 1.05988 3.40128 -12.0789 
14907 1 29.0423 10.186 10.3202 23.3852 18.2227 21.7154 
15008 5 24.7476 8.17989 10.6591 15.6712 -0.24761 -1.93318 
14899 6 29.4402 9.94521 7.67407 -3.24204 0.0173558 5.29079 
17637 7 24.0129 13.1402 7.48134 1.60837 0.648543 -0.187168 
25427 5 0.471403 16.2254 10.9577 5.9161 -3.70442 -4.34842 
25424 5 3.05777 19.7432 10.2643 -15.0416 -6.31425 -9.89046 
25423 5 0.62854 19.9386 10.7649 3.98451 -4.22495 -10.6387 
25422 4 1.53223 17.8586 9.5283 -9.73054 7.11674 -13.886 
25421 3 1.35286 20.1653 8.46116 -3.22066 -2.55617 -0.00944151 
25419 2 1.68921 19.4163 9.80763 -40.9514 139.332 64.5728 
25358 5 3.0433 15.9649 10.3935 5.9744 -1.27695 -11.4891 
25352 2 1.62447 16.359 9.9389 57.1002 2.97838 34.9281 
25333 1 4.76049 17.9652 10.8964 -6.45279 13.2401 -36.4288 
25357 3 1.27516 15.4524 8.77037 -12.1721 -18.0556 20.5981 
25460 9 1.6173 15.8283 7.87293 0.0871779 0.366644 4.26824 
25349 1 4.58657 14.1062 10.6957 6.02357 16.1705 -37.5865 
22803 5 6.49129 16.0975 10.8756 1.67807 -0.345005 0.488482 
22875 5 6.46084 20.071 11.1158 20.0702 7.80322 11.3941 
25459 9 1.48999 13.6574 8.56205 -1.12669 5.2194 -4.63623 
22801 3 7.03055 16.5942 8.55987 -2.29995 -7.01787 4.01348 
2179 7 -0.387305 20.8468 8.22815 14.4191 2.22279 -6.38348 
22805 3 7.32975 19.3599 8.91011 -8.55065 -8.72998 26.2485 
22908 9 7.54595 19.9046 8.12021 0.00966039 0.259593 6.53814 
22774 6 7.84223 14.1301 6.46407 2.04302 1.27509 1.90869 
22907 9 7.21638 17.5067 8.66763 -0.0405588 20.2985 1.78354 
22800 2 7.69826 20.1918 10.1825 71.5473 58.0692 35.3846 
22810 7 9.52718 17.6319 7.67339 -2.05136 0.951106 -2.03298 
22775 6 10.3724 17.5576 8.1234 -17.9008 -9.01397 6.84293 
22811 7 11.0269 17.744 7.42304 6.06673 1.05307 -1.24865 
20249 3 13.6146 20.1923 8.5115 -17.6242 -16.1212 19.5862 
22799 2 7.50164 15.6895 9.76752 1.41462 21.3246 71.1052 
20181 4 13.1648 15.598 8.7498 -9.60402 -32.0367 -11.4875 
20250 4 13.59 17.8559 9.69511 -13.872 6.79244 -27.8022 
20247 2 13.6446 19.4223 9.89672 3.38645 29.6771 69.7804 
20175 2 13.7411 16.3389 9.95052 44.4844 115.894 88.5446 
20255 5 12.7826 16.0392 11.1348 -2.91858 -11.3311 -16.6228 
20251 5 12.5994 19.887 10.8751 -0.516956 -0.30852 3.97979 
22797 1 10.5866 17.8329 10.6706 3.56262 -1.52967 10.8772 
22804 5 8.85928 16.0465 10.2629 -4.40311 -10.9955 -13.8092 
22806 5 9.15709 19.6726 10.6518 26.4528 -12.4691 -11.2314 
20209 6 12.874 15.0323 5.7533 0.481402 -0.363548 1.49558 
20174 8 12.7095 14.4625 7.54514 27.2496 11.0094 -54.3707 
22802 4 7.35344 14.1712 9.46207 -20.8652 9.58036 -28.8 
22707 1 10.7485 14.2517 10.2767 12.6006 10.8478 0.0761052 
20180 3 10.8086 14.0423 7.95232 18.2533 -8.87017 5.3106 
20260 7 13.0324 18.8856 6.99744 0.135841 1.332 1.26737 
20261 7 12.9162 17.3666 7.33817 -0.529668 10.637 5.62107 
20401 7 13.4229 15.9899 5.62814 -0.161871 0.31189 -1.28085 
20406 9 10.0189 14.4108 7.4707 -1.28337 2.8515 -2.49314 
20413 7 11.9327 15.1884 5.26927 -0.0685394 -0.0247433 -0.438728 
20222 6 12.7014 18.0477 6.67459 -0.749299 0.708681 -0.983732 
22813 7 7.7456 15.0607 6.62462 -0.0715978 -0.0490236 0.0603047 
22812 7 7.44152 13.8113 7.30537 0.743578 1.43059 6.5318 
17861 7 18.0327 18.1656 5.18632 -0.0415636 -0.0258703 -0.19571 
17849 7 19.1146 19.332 5.5722 -0.0529191 0.152204 -0.566086 
17657 6 18.7692 18.3451 5.88217 -4.83376 -2.63542 15.1248 
20252 5 14.9691 19.7344 10.5394 -8.10509 -13.7588 -18.1051 
20182 5 15.2166 16.0409 10.213 -3.93618 -20.5092 -14.2438 
17622 8 18.5634 18.0799 7.75046 32.2841 27.7249 -13.8589 
17854 9 15.9449 18.6012 8.0719 -0.316491 2.00982 -3.25837 
17628 3 16.7563 18.0742 8.25458 4.11891 -9.91711 9.63866 
17624 4 19.3217 16.6826 8.46567 -7.88174 -11.5192 -3.85316 
17629 4 18.9827 19.4332 8.85904 -13.7077 -12.1816 1.3623 
17621 2 19.6951 15.6526 9.54627 46.449 95.8298 82.537 
17623 2 19.5501 20.2671 10.0023 53.9164 25.7873 78.0721 
17630 5 21.0316 19.7719 10.2793 12.5672 -2.38348 -15.6416 
17627 5 21.1919 15.89 9.96206 1.19765 -17.9012 -16.4441 
20155 1 16.8424 17.9752 10.6946 2.36261 10.8546 -23.0261 
17626 5 18.7672 15.8963 10.7355 -8.81187 -9.07127 -11.758 
20171 1 16.7158 14.1373 10.3208 5.13067 6.33609 -20.8528 
17625 4 19.606 14.0957 9.12525 -6.12619 7.97764 -12.0964 
17564 7 21.4906 17.2833 7.58657 -0.573675 1.54822 -1.14101 
17703 5 18.6795 20.0258 11.2014 -15.6927 -12.5349 -21.1862 
17709 7 19.905 20.6273 7.34679 2.90858 4.95893 4.47892 
20259 7 15.568 20.8847 8.4035 12.154 3.5368 -2.38932 
17526 6 22.4132 17.452 7.70597 -7.60015 -6.62204 17.8157 
17563 7 22.8092 16.6576 7.3521 0.25538 0.344169 -1.89881 
17619 1 22.5682 17.9268 10.3236 11.4087 12.9008 -21.9197 
15250 9 25.4259 16.554 7.3496 3.23383 4.18093 70.3463 
15006 3 25.6058 15.7572 7.92658 -17.3205 -12.2289 55.9066 
15072 4 25.3173 20.4252 8.40544 -12.9775 -7.99583 -3.01107 
15073 4 25.9599 17.9542 9.15621 -15.9556 6.14454 -34.9092 
15069 2 25.8295 19.4844 9.52152 47.8947 196.156 68.0161 
15075 5 27.2671 19.8707 9.91392 4.99012 -4.08928 -14.407 
15001 2 25.8934 16.4473 9.39988 31.9755 22.8853 33.1001 
15007 5 27.2951 15.9854 9.7832 -0.47368 -10.663 -15.6673 
14980 1 29.1857 17.8209 10.1444 -13.0619 -20.3818 14.7078 
15074 5 24.8028 19.6389 10.6176 -6.17074 -5.03935 -18.9427 
15079 5 24.8396 16.1163 10.4638 8.39436 -3.71808 0.371908 
12533 7 25.4571 18.3754 7.23091 -0.408725 4.47362 6.00608 
17532 1 22.9834 14.1035 10.1761 10.2497 12.3893 8.72514 
14998 1 28.6373 13.9834 10.0874 19.6525 24.7949 12.4587 
12492 6 25.1645 17.9196 6.43544 -1.26834 -1.71494 -0.964408 
12532 7 24.2391 17.8074 6.45162 -0.071975 0.0107669 -0.216473 
17636 7 24.2982 14.6547 7.77674 3.15058 -4.71546 -4.63072 
17597 6 27.3956 19.7327 6.47718 -16.3474 -1.10255 0.953052 
17635 7 27.0344 19.9354 7.31032 6.32542 1.2531 -2.34342 
17596 6 23.5563 13.9987 7.66239 -11.3699 -1.5705 4.58227 
14974 6 28.7308 14.0837 7.53935 -5.76582 -10.8552 7.52536 
17634 7 26.9707 18.9124 6.11254 0.288115 0.569776 -0.148206 
15084 7 28.6931 18.2675 6.90767 0.601755 2.77898 -1.50916 
15012 7 28.1952 14.867 7.30744 1.77764 1.79627 -1.76498 
15044 6 29.2899 17.8272 7.55162 -18.453 -15.407 14.4719 
15011 7 29.5706 14.1102 6.99075 5.0585 0.873489 -0.259189 
25461 9 1.63963 21.1191 8.56579 -0.438683 9.02157 -6.06597 
25417 1 4.459 21.7465 10.9217 -17.0802 -20.1059 -19.7454 
24923 5 0.754769 27.5218 10.9484 5.88357 1.83555 -2.36744 
25425 3 1.35108 22.98 8.77836 -10.6156 -8.52334 18.3195 
24927 5 0.559259 23.61 11.1153 15.6744 -1.52715 8.08853 
25426 5 3.10363 23.8017 10.4009 3.43214 -9.55802 -9.34075 
25420 2 1.64879 23.9265 10.0018 35.6831 98.2228 58.5124 
25401 1 4.97038 25.5329 10.7242 11.4612 4.92147 -2.49187 
24924 5 3.18735 27.1766 10.4054 -6.1875 -6.04213 -13.9037 
24922 4 1.38256 25.4386 9.75254 -16.4099 10.3661 -16.8885 
24919 2 1.7823 26.9563 9.95451 1.07722 144.536 60.3853 
24921 3 1.55556 27.7248 8.56562 -3.26953 -0.929519 8.33983 
25462 9 1.60156 23.3783 7.96981 -0.0549408 0.119292 1.81368 
22871 5 6.64021 23.6959 10.9095 4.89666 -4.7174 -4.62413 
25451 9 2.36751 27.8615 8.13061 0.0544435 0.481521 1.55296 
22375 5 6.78156 27.3777 11.2762 1.9731 -4.06029 -3.93849 
20355 9 13.7553 21.1037 8.67011 -2.58706 21.3641 -0.750021 
22873 3 7.36095 26.8242 8.94079 -1.74585 -2.95897 22.8052 
22910 9 7.83453 27.1872 8.16884 0.0181573 0.304702 5.20771 
22881 7 10.5673 22.2037 7.78641 0.174731 0.149591 -0.591687 
22880 7 12.0072 21.7432 8.22322 12.1017 4.44728 -4.46453 
22869 3 7.56442 24.0265 8.5961 -0.845232 -1.28913 0.765494 
22842 6 11.0399 21.8185 8.50693 -11.6703 -8.66966 2.40927 
22909 9 7.42422 24.9915 8.72358 -0.304508 9.48573 -0.668026 
22870 4 7.80675 21.6814 9.76784 -9.72855 13.0194 -13.8709 
22781 1 10.8959 21.6885 11.0129 -24.9223 -19.2001 27.4626 
22868 2 7.76545 27.7412 10.1816 38.1462 98.4694 38.2679 
22867 2 7.78902 23.2324 9.92461 53.6252 189.775 70.4254 
22381 7 12.0152 26.341 8.4485 11.0852 9.1929 -1.43515 
20253 3 13.4682 23.4016 8.82795 -29.439 -27.6476 6.55654 
22380 7 10.8121 26.2531 7.54966 0.0738724 0.106267 0.102142 
22342 6 11.2091 25.8188 8.3988 -19.3893 -2.73344 29.8427 
20317 3 13.3219 27.8427 9.08682 -10.2618 -13.1577 -7.83132 
20248 2 13.7696 24.0294 10.2263 7.77931 2.97747 107.528 
20318 4 13.624 25.5447 10.0164 -29.0339 -19.0162 -42.7398 
20315 2 13.7788 27.0543 10.3348 50.9907 -14.0691 81.2865 
22865 1 10.6865 25.3992 10.9226 12.8931 11.4115 25.0179 
22872 5 9.17462 23.6871 10.462 5.38171 -15.4532 -13.5497 
22874 5 9.24947 27.6706 10.5948 6.75964 -9.77669 -9.65731 
20356 9 12.5954 23.6209 8.49206 10.328 3.87645 -9.75757 
25431 7 14.1509 26.52 7.83751 1.06668 4.73732 6.80308 
20323 5 12.8525 23.6161 11.429 2.1286 -7.76194 1.84707 
25430 7 14.093 24.9955 7.86813 1.68219 4.74066 10.6423 
25395 6 14.4016 25.7329 7.27378 -0.139186 0.091457 -0.16817 
20258 7 15.2294 22.3163 8.12146 1.33773 0.122962 -1.39625 
20223 6 16.0015 21.7513 8.2238 -7.2526 -1.20904 9.16555 
20245 1 16.5342 21.695 10.8038 16.6073 20.7727 35.0803 
17698 4 19.4354 21.7483 9.56107 -12.1072 -3.82988 -29.3811 
20320 5 15.2214 27.4242 10.856 4.38624 -11.3193 -14.7461 
20254 5 15.1801 23.5949 10.561 -15.7363 -11.1598 -20.0389 
20329 7 17.2434 26.6466 8.28058 4.02365 3.20319 -3.59515 
20328 7 16.0419 25.8023 7.61998 1.70511 -0.0160419 -0.0582036 
17803 9 18.6355 24.4714 8.19816 9.14202 9.206 -0.618838 
20290 6 16.6573 25.8385 8.42977 -27.2105 -4.70919 8.07042 
17697 3 19.4666 23.9299 8.24968 -7.43633 -15.4378 7.37927 
17701 3 18.7572 27.5768 9.07536 -11.5728 -29.4985 -3.67484 
17695 2 19.6311 23.298 9.64847 2.08009 5.76681 80.8515 
17696 2 19.6976 27.9701 10.2409 33.95 100.04 91.7837 
17700 5 20.9899 23.6351 10.1729 -17.3339 -7.80343 -19.1882 
17702 5 21.0953 27.3466 10.1236 7.86608 -13.3667 -20.5073 
17699 5 18.7076 23.7838 10.7613 -3.43801 -4.40197 -1.59223 
20229 1 17.0048 25.6018 10.9426 18.5178 15.1533 -16.1851 
17708 7 20.0702 22.1005 7.0657 -0.243368 1.39664 0.782932 
17670 6 20.1319 21.2549 6.64674 -0.745295 0.855243 -1.26379 
17707 7 20.7868 25.2363 7.6314 4.68201 4.90161 -0.0657084 
17706 7 21.1787 26.5559 8.43819 0.146005 6.48033 6.8612 
17671 6 21.5933 25.7538 7.94146 -0.437173 -4.67494 5.16459 
17804 9 18.1596 28.2261 8.79174 4.33401 -0.367033 -2.98341 
15302 9 22.12 22.0167 7.2663 -10.7499 2.2857 -0.648371 
15082 7 28.9341 21.4367 6.98265 -0.115954 1.91377 -3.05828 
15309 7 26.1711 21.1856 5.56242 -0.0512588 0.353424 -0.57993 
15297 7 25.7773 22.9358 5.36905 0.025033 0.421536 0.0414464 
15076 3 22.8653 21.7306 7.945 5.09964 -10.3978 6.54905 
15105 6 25.4296 21.9972 5.7434 2.50729 2.8154 8.6876 
15067 1 28.5009 21.8246 10.3102 6.51483 13.5684 28.0211 
17603 1 22.8719 21.8054 10.3091 41.9545 31.4036 65.5027 
15070 8 24.6898 21.8654 7.53391 8.53523 22.1147 -6.03849 
15157 7 24.761 24.7113 6.5409 0.0963279 1.42363 -2.16238 
17693 1 22.4585 25.6458 10.3024 35.2447 46.9055 73.6303 
15118 6 24.3516 25.0692 5.80024 0.215899 -0.0163604 -0.0836755 
15156 7 23.4675 25.4068 6.08223 0.34806 0.0658654 -0.0141866 
12750 9 28.7793 27.0604 8.02173 -18.1527 -1.30422 -3.54517 
15145 3 25.8709 28.1424 8.32624 -25.0449 -10.1165 24.6099 
15077 4 25.2347 23.1977 8.50469 -14.7797 -21.8287 -11.5287 
15146 4 25.5466 25.6818 9.29943 -7.85221 17.9929 -15.4175 
15143 2 25.8227 27.2278 9.63665 33.905 57.4762 41.3308 
15071 2 25.6377 24.1622 9.58877 43.0843 137.635 69.4558 
15078 5 27.0823 23.775 9.8664 3.63181 -1.53137 -11.7582 
15148 5 27.2019 27.5255 10.2775 11.3662 -13.2566 -15.612 
15051 1 28.9278 25.6837 10.4438 0.377949 13.4763 38.7091 
15147 5 24.7278 27.7419 10.5663 3.72467 -1.70308 -7.69166 
12524 3 29.1596 26.0649 8.01414 -11.2781 -1.29784 8.99008 
15045 6 29.2043 21.7754 7.82857 -18.5684 -11.023 5.02965 
15251 9 25.5134 27.6474 7.63837 -0.0839673 -0.280893 15.5335 
15151 5 24.6677 23.8201 10.7274 -5.14842 -8.46725 -15.8532 
25272 7 0.737785 4.07972 16.1292 7.5118 -0.684331 10.1153 
25198 5 4.5419 2.55475 12.6561 -17.7663 -10.0707 -12.6247 
25195 5 4.3158 -1.09258 12.7632 0.096719 -3.26526 3.53669 
25511 9 -0.16588 0.632976 16.0204 -2.97746 5.16349 -4.91554 
22635 1 6.05896 0.692999 12.8525 -5.84075 3.62435 -1.91159 
25268 5 2.06322 2.89899 12.9931 0.259708 -9.59581 -21.9992 
25258 1 0.250924 4.4912 12.7638 3.81448 0.998302 8.5849 
25207 1 0.476342 0.786529 13.0733 15.3202 42.3999 28.5132 
25191 2 3.47612 3.03985 13.5769 19.7029 104.814 63.9014 
25263 4 3.57926 4.53329 13.9916 -27.9024 5.11309 -35.1283 
25197 4 3.26023 2.0922 14.7531 -9.81016 -15.5182 -11.6551 
25192 4 3.04502 -0.482259 14.848 -6.96053 -11.193 -1.91496 
25196 3 0.635558 0.814741 15.49 12.7669 -19.2276 14.1733 
25190 8 2.49008 0.878398 15.836 22.5375 28.6351 -32.012 
25240 6 3.41846 1.3724 17.386 -6.50758 -2.14114 -14.3774 
25519 7 3.29119 0.833431 18.2844 -1.52046 -0.278676 -39.0463 
25507 7 3.27153 2.40631 17.7432 -1.53737 0.364378 -13.058 
22649 6 4.14722 4.49301 16.761 -22.8075 10.9882 -21.0029 
25308 6 0.0658695 4.10757 15.3749 -18.3266 -1.53509 14.6232 
25270 6 1.57376 4.60283 17.7656 -28.6778 -4.5504 -11.0303 
25310 7 1.89728 4.55208 18.6411 -1.42797 3.11395 -8.44453 
22655 1 6.37544 4.67075 12.8239 -2.64506 5.92102 -8.45565 
25194 5 1.89442 -1.62182 13.1754 0.5901 -13.8478 -19.655 
25189 2 3.31878 -1.5892 13.8009 42.7654 12.5767 92.1797 
25309 7 2.39882 4.51642 17.2281 21.7087 0.488993 -5.71132 
22683 6 6.34928 1.53611 15.3298 -18.7026 4.23277 1.84299 
22684 7 4.07261 3.85526 16.0092 -0.127681 6.19482 14.9737 
22644 3 6.76532 4.44578 15.1295 28.3498 -20.5609 10.5608 
22759 7 5.1746 3.95947 18.4111 -0.38374 1.36691 -3.89591 
22959 9 6.03388 4.52873 15.8837 5.88189 2.40648 3.96461 
22685 7 4.23239 5.3653 16.2656 -1.29827 13.1641 5.36531 
20061 7 6.78874 0.838989 18.346 1.4928 0.177226 -4.93984 
22760 7 6.12011 2.99656 18.9254 0.201699 4.61182 -1.78345 
22651 7 6.61063 1.30672 16.2716 2.35005 -8.53692 -3.18041 
25476 9 3.24911 28.5945 16.3048 0.35644 6.15601 -119.143 
22653 7 6.85841 -1.31563 15.7396 3.43775 2.76442 -2.26054 
25201 6 0.00746221 0.589331 19.1678 -29.1163 -18.9611 14.0972 
22717 6 5.75993 3.89227 19.146 -14.5276 -2.70337 -3.47921 
25446 6 -0.283247 19.8621 15.8953 -23.0262 -0.118204 37.5118 
22652 7 5.59873 -1.79517 16.4709 4.56321 1.84158 1.88849 
25311 7 -0.295569 4.76393 18.6466 2.37294 -0.501475 -4.60556 
20023 6 7.34901 1.33303 17.7425 -28.2856 -2.14673 -32.6155 
22650 7 6.68828 2.48255 15.227 9.05523 18.2126 -6.91472 
20022 6 13.8879 2.95787 17.0243 0.27437 -5.5937 -10.5985 
20062 7 8.02058 0.640496 17.5203 4.22181 6.33067 -3.20908 
20101 7 9.88769 0.953455 16.5386 0.113139 -4.83351 -3.72176 
22931 9 9.91285 -0.950704 15.7162 0.584852 3.83066 97.189 
22643 5 10.3472 2.57234 12.1955 -2.61287 -4.32036 -8.17944 
20083 1 12.0539 4.57824 12.2941 18.144 9.48308 23.5346 
22642 5 7.78438 2.32799 12.6693 -2.53195 -7.93011 -21.4373 
22572 5 10.3915 -1.19034 12.4814 2.81201 -8.41178 -6.84255 
22647 5 8.01803 -1.15376 13.3887 15.7066 -12.7678 -15.4873 
20029 1 12.4935 0.818447 12.5759 1.65844 6.69446 -10.8595 
20095 5 13.8672 2.81253 13.0198 -9.48387 -10.3591 -12.2745 
22637 2 9.23854 2.21284 13.1776 45.3351 188.676 71.1482 
22565 2 9.47766 -0.798971 13.6553 40.7077 42.8865 50.9252 
22641 4 9.6135 0.790931 13.697 -19.835 27.2908 -23.7619 
22640 4 9.10375 3.21619 14.2882 -10.0313 -13.061 -7.4932 
20060 6 12.6294 0.461594 15.1727 -18.0889 -17.227 12.3363 
20025 7 13.3816 -0.100566 15.1614 1.56222 1.33566 -2.84536 
22638 8 8.63285 4.52579 15.4113 45.6829 42.4092 23.0771 
20024 7 11.8723 -0.116802 15.1166 4.33988 0.210729 -5.35335 
22688 6 9.34476 4.26307 17.1278 0.0288782 -1.78505 17.4175 
20130 6 9.9325 0.139092 16.9849 -40.7015 -35.0039 -26.9472 
20016 5 13.8732 -1.10957 13.0216 4.79972 -17.3939 -21.1591 
20100 7 10.7472 0.258756 17.4389 -1.78646 0.262162 -2.14742 
22967 7 8.85212 3.74632 17.9468 -1.85906 8.99316 23.9629 
22571 3 10.1748 -1.45573 14.8931 -10.0763 -22.5351 11.1752 
20064 7 14.2218 2.82706 17.8834 -9.42985 -0.442452 12.7126 
20063 7 13.2786 2.26034 16.9614 -6.12241 -1.49485 -3.3164 
20096 6 12.1103 0.547881 18.9964 -14.2438 -1.46655 17.6286 
22955 7 9.74381 5.15013 17.6799 4.35539 9.6443 7.73189 
22918 9 9.16492 -0.660938 18.7109 14.3407 4.62439 90.0555 
22919 9 7.93427 2.49279 18.9993 11.6998 14.0183 90.231 
20131 6 11.7402 4.13085 19.1447 -7.69191 -11.3618 18.9626 
20099 7 10.828 3.93026 18.8707 4.86292 3.35888 -3.23051 
20051 3 14.2737 -1.3387 19.1959 -23.3816 -29.1921 56.9123 
20134 7 12.7629 -0.215362 18.7172 8.69081 8.79814 -1.57684 
20367 9 13.4286 5.37653 18.8764 11.7111 12.7688 7.14038 
20098 7 12.187 3.7422 18.3537 2.84175 1.72839 3.22626 
20379 9 14.9024 2.33525 15.6704 6.50574 7.08457 -29.3733 
17813 9 20.9232 2.06524 18.3747 -2.43799 7.86813 36.0542 
20378 9 15.4007 0.0444891 14.8487 -2.71987 95.2736 31.7357 
20012 2 15.2359 -1.61828 13.5115 14.6938 -96.3219 73.2914 
17469 5 19.9364 -1.30131 13.4326 -16.3551 -11.4722 -17.2239 
20017 5 16.2815 -1.21496 12.5395 9.8358 -0.727303 -6.13545 
20020 5 16.2894 2.4578 12.6312 -5.09179 -4.30399 -13.5187 
17477 1 18.4308 4.50707 12.7514 43.2718 38.0368 58.5968 
17458 1 18.218 0.637135 12.871 40.2028 30.7332 9.29729 
17464 5 19.9587 2.61017 13.0923 -2.84683 -12.6369 -14.4985 
20014 3 15.3481 -0.927596 14.9324 -14.69 -5.15177 30.1392 
20013 2 15.2355 2.86552 13.6686 30.7225 -9.67487 47.4211 
20089 4 15.4847 4.41259 13.8828 -14.1805 -8.01819 -20.3719 
17460 2 21.2934 2.30374 13.8302 59.8217 -77.1766 74.8267 
17386 2 21.2555 -0.760946 14.0881 50.9868 134.231 5.4602 
20019 3 15.5254 2.06118 14.9407 -25.8509 -18.2807 -10.8876 
17466 6 17.8658 0.640126 15.3685 -25.8675 -13.8371 1.29023 
17494 7 16.973 0.302822 15.5067 10.7616 9.18184 -5.97942 
17493 7 17.8956 1.52224 15.7694 5.11477 4.92487 -3.52952 
17471 6 18.8014 3.02882 16.8247 -50.96 -48.7113 -11.7342 
17510 7 19.4578 2.83975 16.1733 4.41271 0.415102 -6.50035 
17509 7 19.2907 3.26039 17.6616 6.31054 2.69518 14.1412 
17463 4 21.2166 0.803669 14.1626 -10.8904 -22.0982 -29.0596 
17508 6 18.3781 5.05118 15.2492 -17.5977 -3.99841 15.889 
17473 7 18.2341 4.26353 15.9794 4.71708 7.3447 5.17507 
14959 7 20.191 0.579252 17.6944 1.35228 1.60828 2.737 
14960 7 20.7978 1.44902 16.4884 -3.88138 15.3917 11.6437 
17391 3 21.3471 -1.35958 15.5032 -22.3868 -53.3149 -18.4282 
17825 9 21.3549 -0.705602 16.1435 -1.7969 -5.42255 -126.683 
17462 3 21.36 3.16854 15.1133 -23.8856 -22.3047 5.2832 
14918 6 21.0211 0.826509 17.2399 10.8564 -9.98661 7.7727 
17583 7 16.1415 4.62978 18.2388 9.26296 3.78372 -1.43907 
17826 9 21.2108 4.09426 14.9341 0.859109 19.3046 0.573743 
17544 6 16.9118 4.0896 18.7171 -12.4604 -8.66112 5.6488 
17582 7 17.4986 3.83932 18.0027 3.49832 2.09704 -3.45497 
17499 3 20.5816 2.74069 19.0184 -15.9566 -31.8982 -12.5031 
17456 7 15.9492 -0.323705 19.063 8.85358 1.71317 -2.70201 
17457 7 16.5378 0.784191 18.0979 4.17665 5.88062 4.49402 
17503 6 16.7928 0.16414 18.9131 -16.2128 0.860354 21.8841 
20366 9 15.5055 3.06312 19.308 -12.3291 -0.356197 -49.5015 
14905 7 22.3868 3.7681 18.3622 0.665962 -1.84538 -4.43743 