ITEM: TIMESTEP
380000
ITEM: NUMBER OF ATOMS
25517
ITEM: BOX BOUNDS pp pp ff
-3.8959205201285124e-01 6.0088135642019459e+01
-1.9452389155355383e+00 5.9115524189537531e+01
-1.2206056431032383e+01 1.1390111600702880e+02
ITEM: ATOMS id type x y z v_stressx v_stressy v_stressz 
25292 7 5.89857 3.03966 7.5916 -2.43433 -8.48304 -6.09764 
25293 7 5.98077 1.53035 7.7064 -1.8796 -5.90109 -1.87675 
25252 6 5.35811 2.25094 7.51796 -6.36411 -3.25079 0.130531 
25287 5 0.61597 0.755495 10.7564 7.71004 -1.99545 5.24446 
25283 5 2.94291 4.2301 9.842 10.8497 6.40652 -12.6901 
25281 4 1.3887 2.44216 9.07367 -12.504 1.95657 -14.8625 
25280 4 1.07853 5.00258 8.46007 -12.8009 -8.65409 -6.78461 
25277 2 1.45655 3.94107 9.49571 51.6753 34.8065 77.4348 
25215 5 2.99957 0.588718 9.72621 -14.4445 -10.1322 -11.2926 
25209 2 1.59287 0.935181 9.44522 8.24209 -58.8642 69.3347 
25188 1 4.8243 2.58953 9.97468 5.52054 1.26321 13.5967 
25214 3 0.796635 0.0137284 8.44439 -2.0694 -4.99891 3.78071 
25282 5 0.520916 4.37471 10.6565 -15.2149 -14.3243 -17.95 
25458 9 1.40812 -0.435335 7.83607 0.011375 2.14381 1.7414 
25206 1 4.52732 -1.17961 10.115 35.0054 38.155 20.938 
22660 5 6.52822 0.875659 10.2203 -1.36159 -5.61183 -15.1852 
22735 5 6.623 4.87348 10.5536 2.2523 -9.33697 -14.2402 
25505 7 1.83983 5.65447 5.50835 -0.056422 -0.164843 -0.297633 
22662 3 7.17647 4.29529 8.22411 -12.3072 -23.2708 -18.3806 
22658 3 7.30314 0.346889 7.89736 -14.9286 -15.1535 -11.3054 
22905 9 7.65252 -0.485879 7.46068 0.0192566 -0.416998 -4.48279 
22906 9 7.50322 4.57024 7.35908 -2.70709 4.37375 9.94278 
20115 7 11.1372 2.292 6.49758 0.447008 -0.00508752 -1.13399 
22656 2 7.7059 0.365729 9.40584 22.3728 74.2846 59.7618 
20116 7 12.1136 2.88755 7.40659 19.6892 6.74123 2.63773 
20078 6 11.1398 2.86581 7.23657 -15.937 -11.7323 1.50263 
20106 3 13.741 4.72985 7.46261 -15.9093 -11.1853 42.2608 
22657 2 7.60419 5.1024 9.41016 55.2847 -15.3416 20.4237 
20036 3 13.619 0.47741 7.57109 -16.7087 -19.5233 17.0857 
20107 4 13.6664 2.6833 8.8298 -18.2877 -14.1394 -33.438 
20104 2 13.8784 4.18168 8.97251 32.4495 36.4323 93.7642 
20031 2 13.7132 1.1448 8.96008 63.242 164.037 13.9897 
20108 5 12.6966 4.70757 9.81807 14.5979 12.0198 1.73109 
20112 5 12.4932 0.846951 9.91178 10.9611 -0.220023 7.43255 
22654 1 10.4859 2.78478 9.68506 11.0059 10.0734 10.6291 
22661 5 9.03983 1.11007 9.56315 -7.40392 -6.55729 -15.6642 
22663 5 9.10858 4.7108 9.73761 4.39162 -12.8352 -14.9261 
22563 1 10.886 -1.13469 10.1589 -0.138229 -0.493765 -12.161 
22659 4 7.7627 -1.12896 9.68153 -9.44916 -34.8829 -34.033 
22629 6 11.3751 -1.065 7.76545 -16.7896 5.00127 2.60951 
22669 7 11.9249 -0.207968 7.44815 1.31344 5.21401 -1.32023 
20352 9 13.8605 1.22514 6.87465 0.739262 12.5382 14.6383 
20189 7 14.2777 3.18994 6.51456 0.290545 13.5456 8.37115 
20353 9 14.543 5.23857 7.22704 7.76735 13.2234 16.7954 
20148 6 14.5671 2.45013 5.87332 0.144738 0.0562655 0.0989937 
22740 7 11.2703 5.5881 6.8279 3.28725 1.48595 -1.1386 
22738 7 8.76742 5.41578 5.90114 -0.683225 0.698264 -1.3371 
22701 6 7.85394 5.37142 5.69312 0.462401 -0.313847 7.8918 
22739 7 7.886 4.86164 4.87022 -0.0110375 0.0202659 0.00828789 
22670 7 11.9327 -1.89861 7.72342 1.06435 1.67996 -5.2747 
20188 7 15.4435 2.20345 6.22553 0.8136 -0.132702 0.0734777 
20037 5 15.0057 0.565552 9.66218 -1.07315 -6.91253 -13.1834 
20118 7 17.8719 2.63796 7.70159 5.65059 -0.336218 -2.99333 
20117 7 17.6995 1.17882 7.44002 3.01523 2.56005 -4.74777 
17799 9 19.455 -0.241526 7.33338 0.335964 6.60507 17.9343 
20077 6 17.1284 2.01775 7.60787 -23.1765 2.40075 27.0359 
17484 3 19.536 4.02271 8.03155 -4.21334 -2.59981 -2.1981 
20109 5 15.1822 4.68195 9.53593 -5.94781 -7.34346 -17.4684 
17480 3 19.3808 0.510653 7.95906 -16.494 -31.9445 11.2264 
17478 2 19.7385 0.13463 9.405 32.5645 34.7364 46.5891 
17479 2 19.7269 4.90401 9.32133 47.2534 113.812 61.1343 
17485 5 21.0972 4.45706 9.83859 4.80863 -16.1634 -16.5338 
17483 5 21.125 0.57616 9.92672 5.19086 -10.105 -13.1945 
17482 5 18.7273 0.612358 10.4453 0.754818 -3.6688 -6.32272 
17560 5 18.5746 4.39351 10.2378 -1.14316 1.73112 -11.0203 
20011 1 16.7883 2.43064 10.1919 50.395 45.8906 50.9155 
20028 1 16.5417 -1.33752 10.1131 23.7556 17.1898 10.4001 
17481 4 19.613 -1.37684 9.30614 -12.3093 -19.5546 -37.6287 
17800 9 20.2785 3.41394 7.96437 0.322812 -2.88787 -5.50077 
20002 6 16.2002 -1.21507 7.53432 -10.444 -7.5682 13.7757 
20044 7 15.5857 -0.449442 7.68688 4.37387 8.58716 -3.01329 
20043 7 16.3516 -1.12082 6.60323 0.281931 0.202812 -0.851369 
17377 6 19.8786 -1.6773 6.3322 0.246093 -0.139785 -0.0105981 
17415 7 20.5742 -1.92657 6.98281 2.88349 2.49584 2.10397 
14864 7 23.6314 3.83266 7.75133 5.59421 -4.67572 -1.42395 
14825 6 23.2988 2.969 7.82153 -9.29959 -3.83311 1.34221 
14863 7 24.1611 2.53617 7.90018 3.88128 -1.32085 -0.580003 
17476 1 22.5994 2.5974 10.2549 -65.5616 -41.1339 56.42 
14928 3 25.5679 4.59148 8.20809 -31.467 -50.1932 -46.6568 
15246 9 24.7065 0.00657495 8.04332 7.98807 10.78 19.9499 
14856 3 25.5405 0.383335 8.16649 -12.6524 -14.7817 10.8479 
14929 4 25.6618 2.47021 9.27814 -17.9323 -35.0508 -33.9301 
14851 2 25.7726 0.935136 9.6021 20.4373 -189.756 76.1954 
14926 2 25.8313 3.99121 9.61155 29.0347 145.875 88.3679 
14857 5 27.172 0.513951 10.0212 -9.76333 -11.9692 -20.9433 
14931 5 27.2703 4.30837 10.1061 -28.3041 -11.549 -17.6155 
14832 1 28.9014 2.41808 10.4207 14.4121 12.2955 35.4705 
14930 5 24.8007 4.37565 10.6576 12.608 -4.47762 -12.9367 
14934 5 24.7275 0.511689 10.6576 4.54288 -3.97533 -0.640233 
17384 1 22.8636 -1.16741 10.5973 -0.184939 4.35556 7.85356 
14848 1 28.7231 -1.43222 10.2624 14.6845 18.9298 -7.41834 
14898 6 29.1786 2.45721 7.88738 -13.6548 -15.3635 6.0694 
15247 9 26.3681 4.66526 7.72718 -1.61379 -1.08915 -15.3037 
14826 6 28.1456 -1.3901 7.71182 1.23372 -3.58149 26.6511 
14861 7 27.5228 -0.59177 7.7367 5.01822 5.87387 -2.23569 
14862 7 28.7608 -1.17174 6.9734 0.155821 0.038527 -0.0629008 
17565 7 23.8543 5.62398 7.62904 12.5336 3.76508 -1.5663 
17491 7 23.3409 -0.830267 7.25909 0.0982401 0.0723873 -0.447515 
12347 6 29.4782 5.3719 8.00631 -15.2458 -7.27 4.03074 
14939 7 29.2544 3.33895 7.63004 0.44337 -0.924051 -1.20727 
17492 7 24.1978 -1.77871 8.08715 8.19801 2.5039 -6.22125 
17450 6 23.2929 -1.42611 8.02021 -21.6138 -7.04245 18.8969 
25291 7 5.22591 6.53661 7.32751 1.19341 1.65965 -3.04962 
25290 7 3.82687 6.55555 6.86919 -0.693189 1.64747 -4.32569 
25253 6 4.33607 6.71227 7.63615 -9.59565 -11.624 1.62244 
25517 7 1.84279 7.29014 5.50902 -0.0256153 -0.0620853 -0.552938 
25313 6 1.21101 6.45671 5.78137 5.99475 -5.03255 30.2213 
25362 7 1.19888 10.608 6.31952 -0.0170104 -0.0122971 -0.0187434 
25275 1 4.36027 6.50413 10.1833 3.89804 12.812 6.49233 
25278 8 0.639374 6.49188 7.63496 53.0618 31.8057 10.33 
22958 9 3.89074 10.3239 7.2783 -3.4797 1.50786 0.281195 
22732 3 4.70032 10.3548 7.96195 2.39102 -12.6829 13.6815 
25359 5 0.701437 8.49354 11.0939 -9.83629 -10.5187 -16.2287 
25356 5 3.08021 12.146 10.2169 10.004 0.0493009 -12.6552 
25355 5 0.535314 12.2845 10.6518 -2.66556 -5.45106 -7.80193 
25354 4 1.48185 10.2856 9.54639 -13.7703 13.9237 -26.6487 
25353 3 1.39194 12.6945 8.41831 -15.9554 -8.64629 4.27538 
25351 2 1.63225 11.8296 9.72046 40.6785 49.3837 65.5345 
25286 5 2.93236 8.28049 10.0288 -5.7009 -16.1168 -18.9461 
25285 4 0.892127 7.85648 8.74192 -20.9256 -18.8165 -5.21488 
25279 2 1.49492 8.71367 9.83417 17.1652 100.01 77.5702 
25259 1 4.86194 10.2149 10.3927 7.19839 9.30799 45.6919 
25327 6 1.60703 9.7444 6.34125 2.33749 1.34363 -0.858712 
25363 7 1.38635 9.50649 7.2315 0.524464 2.72639 1.50574 
22807 5 6.5607 12.2849 10.8694 -15.8724 -14.7827 -18.3907 
22730 5 6.65234 8.34528 10.5398 -4.64292 -14.7141 -13.1595 
22726 8 6.48614 10.4372 7.49213 -1.55988 17.927 -26.1347 
22761 6 7.05704 10.8316 5.66761 1.77187 2.49426 6.83555 
22733 4 6.9844 11.7221 8.61372 -11.0091 -12.6384 -2.54924 
22728 4 7.23016 9.05362 8.29312 -12.9536 -20.3102 -5.6778 
22953 7 7.91026 10.1976 5.3838 -0.0661423 0.100623 -0.652058 
22965 7 7.33207 11.8331 5.45166 -0.0488836 0.142013 -0.276739 
22741 7 11.5 7.01103 7.05421 2.6071 -0.0321919 -1.54739 
22700 6 10.8104 6.36788 7.23855 -16.1049 -2.14925 18.3221 
22636 1 10.9188 6.69179 9.82281 4.07819 9.38742 11.5427 
22729 4 7.48133 6.61374 9.11192 -11.4419 -8.70584 -27.3459 
22668 7 10.5831 8.59932 7.42923 1.90494 4.35218 -3.2135 
22725 2 7.70374 8.13304 9.39568 27.7788 32.39 97.9347 
22727 2 7.53968 12.6129 9.75953 17.4138 133.122 80.8166 
22630 6 10.7174 9.56513 7.55044 -8.18991 0.72885 5.34543 
22667 7 11.6785 9.56 7.58776 1.26778 0.733615 -1.32645 
20110 3 13.3722 8.00482 7.87861 -11.0726 -1.08982 -3.73719 
20176 4 13.3404 12.979 8.33811 -6.59996 -6.94903 -4.12446 
20177 4 13.5478 10.5013 8.95979 -6.35035 -0.315667 -16.3969 
20173 2 13.7057 11.9908 9.40771 34.1027 -4.63026 76.8757 
20105 2 13.7244 8.93675 9.12343 -1.79125 6.64927 84.9339 
20178 5 12.5598 12.2564 10.4158 -7.88757 -12.5722 -21.6799 
20183 5 12.8988 8.51128 10.3587 -3.61394 -11.3302 -7.05456 
22734 5 8.97942 12.4092 10.1072 -12.4296 -12.4988 -17.2139 
22723 1 10.5486 10.4168 9.97488 -3.02234 4.13088 9.16096 
22731 5 9.11607 8.33188 9.85191 -15.7216 -24.5387 -22.2865 
20354 9 13.8366 7.1662 8.02076 -1.07342 -12.3189 -25.4474 
17489 7 15.3685 7.53149 7.27379 -6.19417 -2.27291 -3.75741 
17490 7 16.4114 7.08597 6.51817 -0.224877 0.0337362 -0.310405 
17451 6 15.9423 6.78743 7.29642 -18.8132 -17.2427 17.4721 
17555 4 19.5148 6.40419 9.24816 -10.942 2.26719 -18.7617 
20102 1 16.4765 6.46221 9.86905 10.9038 0.439027 19.234 
20179 5 15.0791 12.3713 9.86379 2.69031 3.7012 -11.5657 
20111 5 15.0953 8.51182 9.52882 -26.3067 -13.8308 -14.7602 
17802 9 19.4832 11.878 7.51898 -0.108004 -0.0960429 0.158075 
17554 3 19.6317 8.68088 7.9737 -1.8789 -5.31596 6.2118 
17801 9 19.3812 9.57046 8.10065 0.641302 12.1823 6.3142 
17558 3 19.3121 11.5602 8.35726 -4.20196 -2.26527 -0.574732 
17552 2 19.7279 7.97853 9.40881 25.5545 57.4834 60.7317 
17553 2 19.7446 12.5897 9.5152 42.0329 43.5193 66.8933 
17559 5 21.2085 12.1329 9.83297 6.75932 -0.649531 -11.0499 
17557 5 21.1128 8.33065 9.93016 0.936823 -11.4208 -15.7885 
17556 5 18.49 8.44005 10.194 12.4948 -3.66748 -6.25872 
17631 5 18.754 12.2185 10.6826 1.65002 -5.57476 -1.08683 
20084 1 16.8199 10.2664 10.3615 -12.3099 -5.55194 0.0160933 
17566 7 22.7737 6.49197 7.09029 0.0947366 0.018549 0.0498573 
17525 6 23.2369 6.30614 7.97014 -29.9892 -6.03329 17.2255 
15249 9 26.4199 12.3989 7.50271 0.848005 0.689513 0.259777 
14924 1 28.8784 6.30371 10.2599 24.7403 20.1556 6.33346 
17459 1 22.8153 6.36449 10.4136 -83.7261 -68.0973 35.2392 
17550 1 22.6813 10.1773 10.109 18.802 17.7289 8.6485 
15248 9 25.0074 7.30471 8.25379 6.752 8.8594 8.66704 
15002 3 25.5553 12.1132 7.86039 -4.87513 -8.82337 8.8824 
14932 3 25.8534 7.69566 8.37038 -4.68484 -4.17132 1.42673 
15003 4 25.6929 10.0578 9.40228 -9.26133 -5.98897 -23.1879 
15000 2 25.8234 11.5586 9.33827 29.832 102.692 71.4952 
14927 2 25.9265 8.52626 9.67582 40.794 66.446 72.6369 
15005 5 27.2586 12.0307 9.65026 -1.68068 -12.7139 -16.8595 
14933 5 27.3368 8.19806 10.2714 9.492 -13.902 -17.2902 
15004 5 24.794 12.1885 10.2281 1.13363 3.36686 -11.9051 
14907 1 29.0423 10.186 10.3202 23.1902 18.5532 21.758 
15008 5 24.7476 8.17989 10.6591 15.5859 -0.169768 -2.56197 
14899 6 29.4402 9.94521 7.67407 -3.23867 0.0301836 5.31532 
17637 7 24.0129 13.1402 7.48134 1.61225 0.649393 -0.188351 
25427 5 0.471403 16.2254 10.9577 6.26184 -3.51981 -4.23701 
25424 5 3.05777 19.7432 10.2643 -15.1536 -6.4522 -9.70522 
25423 5 0.62854 19.9386 10.7649 4.15086 -4.182 -8.74843 
25422 4 1.53223 17.8586 9.5283 -9.83959 7.02354 -14.6131 
25421 3 1.35286 20.1653 8.46116 -3.26575 -2.61322 -0.218095 
25419 2 1.68921 19.4163 9.80763 -40.4542 140.748 65.0627 
25358 5 3.0433 15.9649 10.3935 6.06519 -1.09847 -11.5083 
25352 2 1.62447 16.359 9.9389 57.1055 2.16394 36.1902 
25333 1 4.76049 17.9652 10.8964 -5.8684 13.166 -27.5733 
25357 3 1.27516 15.4524 8.77037 -12.4857 -17.3869 18.2312 
25460 9 1.6173 15.8283 7.87293 0.105438 0.361632 4.24276 
25349 1 4.58657 14.1062 10.6957 6.30705 16.2684 -32.6081 
22803 5 6.49129 16.0975 10.8756 1.27135 -0.546582 -0.334378 
22875 5 6.46084 20.071 11.1158 20.1594 8.02442 13.5231 
25459 9 1.48999 13.6574 8.56205 -1.00626 4.9533 -4.17772 
22801 3 7.03055 16.5942 8.55987 -2.26336 -6.94641 4.28667 
2179 7 -0.387305 20.8468 8.22815 14.4424 2.26289 -6.13247 
2035 7 -0.413598 13.1532 7.87768 2.52783 1.28607 -2.26077 
22805 3 7.32975 19.3599 8.91011 -8.50242 -8.66985 26.2542 
22908 9 7.54595 19.9046 8.12021 0.00813588 0.260167 6.53383 
22774 6 7.84223 14.1301 6.46407 2.03535 1.25381 1.88903 
22907 9 7.21638 17.5067 8.66763 -0.0758502 20.2456 1.6169 
22800 2 7.69826 20.1918 10.1825 71.4822 57.8918 35.4348 
22810 7 9.52718 17.6319 7.67339 -2.03188 0.948675 -1.99286 
22775 6 10.3724 17.5576 8.1234 -18.1111 -9.04105 6.51625 
22811 7 11.0269 17.744 7.42304 6.09459 1.04619 -1.23551 
20249 3 13.6146 20.1923 8.5115 -17.5771 -16.1955 19.0787 
22799 2 7.50164 15.6895 9.76752 2.06436 21.4146 71.9529 
20181 4 13.1648 15.598 8.7498 -9.67268 -32.1117 -12.0797 
20250 4 13.59 17.8559 9.69511 -13.9276 6.42377 -28.3904 
20247 2 13.6446 19.4223 9.89672 2.69342 29.9061 70.6239 
20175 2 13.7411 16.3389 9.95052 44.9041 117.466 89.0485 
20255 5 12.7826 16.0392 11.1348 -2.73068 -11.5281 -16.0386 
20251 5 12.5994 19.887 10.8751 -0.83521 -0.067974 11.2391 
22797 1 10.5866 17.8329 10.6706 3.41546 -1.10073 19.6017 
22804 5 8.85928 16.0465 10.2629 -4.61147 -11.1295 -14.2754 
22806 5 9.15709 19.6726 10.6518 26.316 -12.5386 -11.3743 
20209 6 12.874 15.0323 5.7533 0.472563 -0.359349 1.51456 
20174 8 12.7095 14.4625 7.54514 27.3791 11.0317 -53.7162 
22802 4 7.35344 14.1712 9.46207 -21.1873 9.12882 -29.5836 
22707 1 10.7485 14.2517 10.2767 12.2055 10.5731 -3.04324 
20180 3 10.8086 14.0423 7.95232 18.154 -8.95327 4.74169 
20260 7 13.0324 18.8856 6.99744 0.134508 1.33671 1.26627 
20261 7 12.9162 17.3666 7.33817 -0.52241 10.6269 5.55365 
20401 7 13.4229 15.9899 5.62814 -0.160457 0.311081 -1.2832 
20406 9 10.0189 14.4108 7.4707 -1.2409 2.87693 -2.31593 
20413 7 11.9327 15.1884 5.26927 -0.0683774 -0.024835 -0.439315 
20222 6 12.7014 18.0477 6.67459 -0.753097 0.708633 -0.985085 
22813 7 7.7456 15.0607 6.62462 -0.071231 -0.0479303 0.0634882 
22812 7 7.44152 13.8113 7.30537 0.738095 1.45318 6.43547 
17861 7 18.0327 18.1656 5.18632 -0.0413976 -0.0256808 -0.195532 
17849 7 19.1146 19.332 5.5722 -0.0528265 0.152622 -0.565324 
17657 6 18.7692 18.3451 5.88217 -4.86398 -2.69176 15.1264 
20252 5 14.9691 19.7344 10.5394 -8.40887 -13.4768 -17.8734 
20182 5 15.2166 16.0409 10.213 -4.05265 -20.748 -14.2652 
17622 8 18.5634 18.0799 7.75046 32.285 28.0236 -14.1684 
17854 9 15.9449 18.6012 8.0719 -0.289307 2.03191 -3.20058 
17628 3 16.7563 18.0742 8.25458 4.0764 -10.0267 9.61981 
17624 4 19.3217 16.6826 8.46567 -7.77975 -11.5771 -3.60205 
17629 4 18.9827 19.4332 8.85904 -13.8207 -12.3625 1.42489 
17621 2 19.6951 15.6526 9.54627 46.3212 94.9956 82.1495 
17623 2 19.5501 20.2671 10.0023 53.9435 25.3918 74.0929 
17630 5 21.0316 19.7719 10.2793 12.4347 -2.67101 -15.1126 
17627 5 21.1919 15.89 9.96206 1.01997 -17.7081 -16.8428 
20155 1 16.8424 17.9752 10.6946 1.99397 10.7672 -25.4444 
17626 5 18.7672 15.8963 10.7355 -8.74883 -8.78833 -12.5828 
20171 1 16.7158 14.1373 10.3208 4.30717 5.75616 -15.1048 
17625 4 19.606 14.0957 9.12525 -6.04232 7.82993 -11.5599 
17564 7 21.4906 17.2833 7.58657 -0.579467 1.58054 -1.21506 
17703 5 18.6795 20.0258 11.2014 -15.4086 -12.3327 -21.1448 
17709 7 19.905 20.6273 7.34679 2.92802 4.99627 4.58502 
20259 7 15.568 20.8847 8.4035 12.2336 3.56704 -2.1249 
17526 6 22.4132 17.452 7.70597 -7.67796 -6.77756 17.8668 
17563 7 22.8092 16.6576 7.3521 0.276024 0.361372 -1.89818 
17619 1 22.5682 17.9268 10.3236 11.6432 12.9373 -6.08013 
15250 9 25.4259 16.554 7.3496 3.26661 4.21462 70.4934 
15006 3 25.6058 15.7572 7.92658 -17.3625 -12.3839 55.3777 
15072 4 25.3173 20.4252 8.40544 -13.0547 -7.90328 -2.56417 
15073 4 25.9599 17.9542 9.15621 -16.0072 5.98075 -35.0341 
15069 2 25.8295 19.4844 9.52152 47.6777 196.858 68.3012 
15075 5 27.2671 19.8707 9.91392 4.90414 -4.22866 -14.8368 
15001 2 25.8934 16.4473 9.39988 32.1672 22.4146 33.1562 
15007 5 27.2951 15.9854 9.7832 -0.528279 -10.5217 -15.6386 
14980 1 29.1857 17.8209 10.1444 -13.0173 -20.7705 15.4808 
15074 5 24.8028 19.6389 10.6176 -6.12451 -5.44445 -19.3595 
15079 5 24.8396 16.1163 10.4638 8.6177 -3.5196 0.0652163 
12533 7 25.4571 18.3754 7.23091 -0.328225 4.49013 6.08365 
17532 1 22.9834 14.1035 10.1761 9.67258 12.3837 9.36726 
14998 1 28.6373 13.9834 10.0874 19.8076 24.8468 12.7082 
12492 6 25.1645 17.9196 6.43544 -1.2816 -1.71484 -0.948876 
12532 7 24.2391 17.8074 6.45162 -0.0688038 0.0108493 -0.223863 
17636 7 24.2982 14.6547 7.77674 3.19682 -4.67635 -4.47756 
17597 6 27.3956 19.7327 6.47718 -16.3958 -1.10923 0.621023 
17635 7 27.0344 19.9354 7.31032 6.33939 1.2195 -2.39021 
17596 6 23.5563 13.9987 7.66239 -11.4447 -1.59612 4.55768 
14974 6 28.7308 14.0837 7.53935 -5.79557 -11.0389 7.03977 
17634 7 26.9707 18.9124 6.11254 0.289418 0.570057 -0.142863 
15084 7 28.6931 18.2675 6.90767 0.59803 2.77753 -1.48689 
15012 7 28.1952 14.867 7.30744 1.78145 1.8122 -1.69217 
15044 6 29.2899 17.8272 7.55162 -18.4358 -15.3733 14.2443 
15011 7 29.5706 14.1102 6.99075 5.04928 0.884715 -0.233093 
25461 9 1.63963 21.1191 8.56579 -0.399376 9.04302 -5.93131 
25417 1 4.459 21.7465 10.9217 -17.1375 -19.8185 -25.9877 
24923 5 0.754769 27.5218 10.9484 5.90828 1.99167 -2.76469 
25425 3 1.35108 22.98 8.77836 -10.5761 -8.17243 18.5533 
24927 5 0.559259 23.61 11.1153 15.5167 -1.7007 8.63905 
25426 5 3.10363 23.8017 10.4009 3.70726 -9.35094 -9.28391 
25420 2 1.64879 23.9265 10.0018 34.8464 97.9417 57.3592 
25401 1 4.97038 25.5329 10.7242 11.7745 5.03376 0.192889 
24924 5 3.18735 27.1766 10.4054 -6.03636 -6.12792 -13.4193 
24922 4 1.38256 25.4386 9.75254 -16.332 10.2658 -16.6979 
24919 2 1.7823 26.9563 9.95451 0.850613 144.792 58.5999 
24921 3 1.55556 27.7248 8.56562 -3.26157 -0.977461 8.32313 
25462 9 1.60156 23.3783 7.96981 -0.0547289 0.116906 1.81735 
22871 5 6.64021 23.6959 10.9095 4.81376 -4.58451 -5.03696 
25451 9 2.36751 27.8615 8.13061 0.0546806 0.483309 1.5539 
22375 5 6.78156 27.3777 11.2762 1.89056 -4.03676 -4.76153 
20355 9 13.7553 21.1037 8.67011 -2.59419 21.3442 -0.588077 
22873 3 7.36095 26.8242 8.94079 -1.72331 -2.94027 22.7547 
22910 9 7.83453 27.1872 8.16884 0.0155252 0.302814 5.19283 
22881 7 10.5673 22.2037 7.78641 0.176254 0.151473 -0.594594 
22880 7 12.0072 21.7432 8.22322 12.0878 4.44166 -4.451 
22869 3 7.56442 24.0265 8.5961 -0.849936 -1.31002 0.763182 
22842 6 11.0399 21.8185 8.50693 -11.7056 -8.6204 2.29454 
22909 9 7.42422 24.9915 8.72358 -0.313141 9.49761 -0.682832 
22870 4 7.80675 21.6814 9.76784 -9.89356 13.0172 -14.1664 
22781 1 10.8959 21.6885 11.0129 -26.7641 -19.7869 15.6548 
22868 2 7.76545 27.7412 10.1816 38.2384 97.9257 39.3572 
22867 2 7.78902 23.2324 9.92461 54.2633 190.114 71.9325 
22381 7 12.0152 26.341 8.4485 11.0978 9.2262 -1.45049 
20253 3 13.4682 23.4016 8.82795 -29.2781 -27.5349 6.73004 
22380 7 10.8121 26.2531 7.54966 0.0749008 0.106688 0.0955499 
22342 6 11.2091 25.8188 8.3988 -19.4553 -2.76935 29.9897 
20317 3 13.3219 27.8427 9.08682 -10.469 -13.3519 -8.97193 
20248 2 13.7696 24.0294 10.2263 7.77717 4.46979 106.096 
20318 4 13.624 25.5447 10.0164 -29.0185 -19.3568 -42.6362 
20315 2 13.7788 27.0543 10.3348 51.0249 -14.3156 82.1267 
22865 1 10.6865 25.3992 10.9226 12.3515 11.3781 20.7911 
22872 5 9.17462 23.6871 10.462 5.20475 -15.6486 -14.1349 
22874 5 9.24947 27.6706 10.5948 6.75458 -9.68302 -10.2469 
20356 9 12.5954 23.6209 8.49206 10.2877 3.84828 -9.88335 
25431 7 14.1509 26.52 7.83751 1.09212 4.73567 6.67318 
20323 5 12.8525 23.6161 11.429 2.21747 -8.07011 1.61953 
25430 7 14.093 24.9955 7.86813 1.70454 4.70496 10.3323 
25395 6 14.4016 25.7329 7.27378 -0.140593 0.0920002 -0.150389 
20258 7 15.2294 22.3163 8.12146 1.36428 0.128989 -1.34296 
20223 6 16.0015 21.7513 8.2238 -7.36117 -1.26618 8.83813 
20245 1 16.5342 21.695 10.8038 16.4481 20.3945 32.6242 
17698 4 19.4354 21.7483 9.56107 -12.1999 -3.61568 -28.2674 
20320 5 15.2214 27.4242 10.856 4.51029 -11.178 -15.3923 
20254 5 15.1801 23.5949 10.561 -15.855 -11.6157 -19.6201 
20329 7 17.2434 26.6466 8.28058 4.00861 3.20567 -3.70263 
20328 7 16.0419 25.8023 7.61998 1.70339 -0.0189311 -0.116116 
17803 9 18.6355 24.4714 8.19816 9.14713 9.23508 -0.637037 
20290 6 16.6573 25.8385 8.42977 -27.2239 -4.72354 8.44997 
17697 3 19.4666 23.9299 8.24968 -7.4662 -15.621 7.46122 
17701 3 18.7572 27.5768 9.07536 -11.4327 -29.658 -3.24253 
17695 2 19.6311 23.298 9.64847 2.28763 6.0024 78.8857 
17696 2 19.6976 27.9701 10.2409 33.082 100.502 88.9217 
17700 5 20.9899 23.6351 10.1729 -17.3034 -7.65724 -18.4597 
17702 5 21.0953 27.3466 10.1236 7.82457 -13.6966 -20.047 
17699 5 18.7076 23.7838 10.7613 -3.30491 -4.16532 -1.44861 
20229 1 17.0048 25.6018 10.9426 18.684 15.171 -12.9247 
17708 7 20.0702 22.1005 7.0657 -0.236631 1.41245 0.880386 
17670 6 20.1319 21.2549 6.64674 -0.743521 0.838481 -1.37093 
17707 7 20.7868 25.2363 7.6314 4.68851 4.92154 -0.0367348 
17706 7 21.1787 26.5559 8.43819 0.164608 6.53216 6.87577 
17671 6 21.5933 25.7538 7.94146 -0.502656 -4.85957 5.02732 
17804 9 18.1596 28.2261 8.79174 4.31752 -0.340884 -3.0765 
15302 9 22.12 22.0167 7.2663 -10.7501 2.29397 -0.54592 
15082 7 28.9341 21.4367 6.98265 -0.117331 1.91923 -3.0646 
15309 7 26.1711 21.1856 5.56242 -0.0510341 0.354118 -0.578223 
15297 7 25.7773 22.9358 5.36905 0.0250123 0.422028 0.0413741 
15076 3 22.8653 21.7306 7.945 5.12739 -10.3033 6.58222 
15105 6 25.4296 21.9972 5.7434 2.50666 2.78972 8.63952 
15067 1 28.5009 21.8246 10.3102 7.47808 14.1203 30.8233 
17603 1 22.8719 21.8054 10.3091 41.9098 31.0828 64.9891 
15070 8 24.6898 21.8654 7.53391 8.74702 22.0968 -5.11044 
15157 7 24.761 24.7113 6.5409 0.0985077 1.44385 -2.12436 
17693 1 22.4585 25.6458 10.3024 35.1233 46.7776 73.8626 
15118 6 24.3516 25.0692 5.80024 0.215524 -0.0168637 -0.08538 
15156 7 23.4675 25.4068 6.08223 0.348158 0.0659945 -0.0124502 
12750 9 28.7793 27.0604 8.02173 -18.1144 -1.32089 -3.48826 
15145 3 25.8709 28.1424 8.32624 -25.1134 -10.015 23.9621 
15077 4 25.2347 23.1977 8.50469 -14.8042 -21.8306 -11.3064 
15146 4 25.5466 25.6818 9.29943 -7.9066 17.7595 -15.4492 
15143 2 25.8227 27.2278 9.63665 33.8816 57.7911 39.7755 
15071 2 25.6377 24.1622 9.58877 43.4844 137.725 70.0126 
15078 5 27.0823 23.775 9.8664 3.48107 -1.61466 -12.1899 
15148 5 27.2019 27.5255 10.2775 11.4202 -13.286 -15.6137 
15051 1 28.9278 25.6837 10.4438 0.266892 13.2718 43.6708 
15147 5 24.7278 27.7419 10.5663 3.65657 -2.1421 -7.85725 
12524 3 29.1596 26.0649 8.01414 -11.3206 -1.27705 8.97327 
15045 6 29.2043 21.7754 7.82857 -18.563 -11.1092 5.02978 
15251 9 25.5134 27.6474 7.63837 -0.0830868 -0.296248 15.5548 
15151 5 24.6677 23.8201 10.7274 -5.09477 -8.12709 -15.2653 
25272 7 0.538755 4.35932 16.2222 2.18001 -0.222544 -1.19103 
25198 5 4.5419 2.55475 12.6561 -18.0245 -10.7622 -10.5869 
25195 5 4.3158 -1.09258 12.7632 0.666227 -1.94349 2.24427 
25511 9 -0.0433351 1.09531 16.3569 7.68322 3.60196 5.84641 
22635 1 6.05896 0.692999 12.8525 -20.3707 -4.54486 -12.4013 
25268 5 2.06322 2.89899 12.9931 -0.205067 -10.7315 -22.6969 
25258 1 0.250924 4.4912 12.7638 12.7859 6.73856 15.7564 
25207 1 0.476342 0.786529 13.0733 16.9158 43.548 30.1223 
25191 2 3.47612 3.03985 13.5769 14.5598 139.582 60.0721 
25263 4 3.57926 4.53329 13.9916 -29.0856 7.8546 -35.8131 
25197 4 3.26023 2.0922 14.7531 -12.0464 -26.9007 -10.5247 
25192 4 3.04502 -0.482259 14.848 -6.09345 -3.13312 -1.52665 
25196 3 0.621331 0.987084 15.4857 30.1199 -13.8127 28.2637 
25190 8 2.47175 0.898044 15.8564 37.9461 46.2658 6.07022 
25240 6 3.47395 0.725653 17.4802 -15.2014 -17.7542 11.6679 
25519 7 3.27649 -0.0654675 18.1644 0.36657 5.20626 -3.61084 
25507 7 3.53921 1.60049 18.1578 5.97382 6.68058 0.906668 
25308 6 0.0547324 4.57044 15.4401 -18.5262 2.0976 22.4751 
25270 6 1.74328 4.38974 17.9728 -18.9797 -21.1641 -5.93711 
25310 7 1.83276 5.03638 18.7613 -2.28929 17.4194 11.265 
22655 1 6.37544 4.67075 12.8239 -4.43249 7.9786 -8.44504 
25194 5 1.89442 -1.62182 13.1754 -0.678396 -12.2952 -20.5827 
25189 2 3.31878 -1.5892 13.8009 46.6279 181.568 101.313 
25309 7 2.59462 4.39182 17.4131 14.1733 -2.0233 -1.35189 
22683 6 5.94336 1.27121 15.2613 -14.0181 -11.2376 -7.0409 
22644 3 6.80553 4.74775 15.0526 -16.6481 -19.2526 3.4893 
25472 9 2.21632 3.1725 18.8519 2.43535 17.3797 121.281 
22651 7 4.99648 1.65173 14.9973 21.7454 3.68451 -8.08459 
22650 7 6.17869 1.78086 16.0592 -1.14273 7.6395 7.27893 
22759 7 4.34437 4.31246 18.4595 -5.76797 -0.59373 -13.7705 
22959 9 6.0137 4.7551 15.7768 -16.7578 3.6014 2.02301 
22649 6 4.09024 4.23869 16.7102 -42.9679 -4.23865 -70.9263 
22684 7 3.97628 3.58945 16.0138 1.96769 3.54733 6.83312 
20023 6 6.90521 2.3754 17.7358 -5.88717 1.03232 -5.42992 
22685 7 3.99801 5.09668 16.1542 -0.751319 24.2051 19.8521 
20062 7 6.40769 1.62781 18.1705 3.57961 10.0537 -1.28832 
22760 7 5.65732 5.0461 18.6322 -0.76181 2.39455 -6.10409 
22717 6 5.00154 4.53825 19.1099 -16.4611 -13.5858 -22.1272 
22687 7 5.21117 -0.121834 18.1998 2.36787 -1.27244 -0.154456 
25236 7 0.254515 -0.507188 19.251 3.66131 5.3959 6.34008 
25201 6 -0.370421 -0.0442724 18.678 -12.1434 -7.97332 6.20068 
12509 6 29.238 23.3255 19.2224 -12.9876 -8.14469 -5.80718 
22648 6 5.28936 -0.235095 19.1706 -33.3007 -7.61919 0.443696 
22686 7 5.41917 -1.22096 19.2051 6.84213 11.4946 -6.01897 
20061 7 7.54541 2.67564 18.4055 3.57191 3.06374 -4.20822 
20022 6 13.5271 0.293902 17.6345 -13.0162 -12.7162 -17.6288 
20101 7 9.53423 1.31897 15.7578 -3.53721 3.88008 6.74834 
22931 9 9.76032 -0.406661 15.6967 1.9114 -2.40388 9.14758 
22643 5 10.3472 2.57234 12.1955 -3.11098 -5.91461 -9.64336 
20083 1 12.0539 4.57824 12.2941 25.2772 14.9812 25.9702 
22642 5 7.78438 2.32799 12.6693 -1.66236 -7.58111 -20.6568 
22572 5 10.3915 -1.19034 12.4814 -3.11046 -7.50573 -10.777 
22647 5 8.01803 -1.15376 13.3887 3.8113 -10.64 -22.6965 
20029 1 12.4935 0.818447 12.5759 0.950931 17.0692 -15.1533 
20095 5 13.8672 2.81253 13.0198 -11.1148 -11.5113 -14.9728 
22637 2 9.23854 2.21284 13.1776 44.5882 3.91906 63.8712 
22565 2 9.47766 -0.798971 13.6553 31.3316 57.1247 3.85357 
22641 4 9.6135 0.790931 13.697 -32.2983 -14.042 -43.8354 
22640 4 9.10375 3.21619 14.2882 -11.5283 -25.2878 -16.715 
20060 6 12.2319 1.1597 15.0215 -23.2379 -13.4836 -12.3678 
20025 7 11.2823 1.16548 14.9424 -1.45437 2.81769 -6.96257 
22638 8 8.5822 4.54994 15.3718 -52.3978 -0.21046 -87.4852 
20024 7 12.417 0.996498 15.9301 2.85057 3.79035 -3.2664 
22688 6 9.56514 4.26666 17.0132 -7.18233 -3.62783 -6.74587 
20130 6 9.29896 1.03078 16.6585 14.2493 -17.3441 -2.0611 
20016 5 13.8732 -1.10957 13.0216 4.17074 -14.2305 -20.7326 
20100 7 8.31318 1.15375 16.6508 9.59309 4.78163 -0.160863 
22967 7 9.20063 4.94295 17.8066 0.424083 6.30431 -39.4956 
22571 3 9.8234 -1.20792 15.1118 -31.6755 -29.5382 8.3751 
20135 7 11.8124 0.219537 18.2677 20.19 1.74349 3.24835 
20134 7 10.2871 0.402323 18.1713 -1.38819 3.8445 6.25403 
22955 7 9.65859 3.31697 17.4422 -1.40734 4.03128 -15.5394 
20063 7 13.9431 -0.566941 17.827 2.15973 16.237 10.9237 
20098 7 11.1027 5.17258 18.409 0.498365 1.55753 -4.29531 
20096 6 10.9758 0.262828 18.8721 -22.4768 -16.0133 2.39151 
22652 7 7.59342 -1.69312 15.7316 6.79779 -1.55192 -2.70554 
22919 9 9.58258 2.19874 19.4056 12.5176 1.17592 12.3862 
20131 6 11.2532 4.90123 19.3401 -23.9632 -10.2133 -1.53766 
20064 7 13.898 0.954728 18.2239 -1.80899 1.62163 -0.130506 
20379 9 14.4979 1.79215 15.3202 -5.53603 5.87907 -9.1425 
22608 3 8.63783 -1.54111 19.2728 -12.9741 -14.6969 -4.1096 
20051 3 14.7186 -1.89542 19.0041 -12.4571 -31.504 9.31416 
17475 7 17.958 -1.47968 15.6176 6.34156 14.2433 -4.95859 
20378 9 15.4007 0.0444891 14.8487 1.5078 38.534 28.1519 
20012 2 15.2359 -1.61828 13.5115 15.976 -65.0439 77.9779 
17469 5 19.9364 -1.30131 13.4326 3.6832 -11.996 -12.3182 
20017 5 16.2815 -1.21496 12.5395 8.17555 -1.28435 -9.06876 
20020 5 16.2894 2.4578 12.6312 -6.55506 -5.3653 -14.1599 
17477 1 18.4308 4.50707 12.7514 42.949 34.9016 51.4635 
17458 1 18.218 0.637135 12.871 43.6641 32.1316 15.2303 
17464 5 19.9587 2.61017 13.0923 -6.50809 -11.3117 -14.6089 
20014 3 15.3481 -0.927596 14.9324 -14.4104 -8.21723 22.0111 
20013 2 15.2355 2.86552 13.6686 26.4478 -24.7604 56.1708 
20089 4 15.4847 4.41259 13.8828 -10.8407 -0.937897 -17.8124 
17460 2 21.2934 2.30374 13.8302 67.0447 144.025 91.8627 
17386 2 21.2555 -0.760946 14.0881 51.2749 105.274 39.8833 
20019 3 15.3507 1.92428 14.9466 -20.3772 -2.25034 8.47892 
17466 6 17.7648 0.616589 15.4612 -30.4851 -18.9565 15.681 
17494 7 16.8635 0.580574 15.7738 1.26761 3.81811 -6.82067 
17493 7 18.2017 1.33641 15.9981 3.56952 10.0389 1.69652 
17471 6 18.5691 2.82072 17.202 -32.0816 -21.9832 -12.2051 
17510 7 18.8204 3.45238 16.5713 -0.950204 0.30801 -6.50474 
17509 7 19.3111 2.70445 17.8264 -5.42698 -1.86149 -17.7143 
17463 4 21.2166 0.803669 14.1626 -12.8177 10.8945 -31.418 
17508 6 18.4654 5.09955 15.184 -36.3737 -24.945 -4.56582 
14959 7 20.8594 0.738244 17.8918 -4.53019 1.29386 -3.71671 
14960 7 21.1362 1.22147 16.4504 -3.25045 12.133 11.033 
17391 3 21.4915 -1.44534 15.4369 -13.9264 -26.9589 16.7533 
17825 9 21.2522 -0.772154 16.195 -1.8101 6.58796 75.0268 
17462 3 21.4909 3.0285 15.2179 -16.9964 -11.95 15.889 
14918 6 21.3407 0.521808 17.1284 -4.30288 -36.5783 -17.6974 
17826 9 21.3543 4.0017 15.0271 -1.13333 28.0289 -2.87348 
17544 6 17.2513 4.54987 18.8875 -32.7549 -4.55131 7.4858 
17582 7 17.7079 4.01525 18.1725 7.15571 8.17166 1.40749 
17457 7 16.0365 -0.215694 18.7422 10.6721 6.29017 -2.62334 
17503 6 16.8002 0.378534 18.7369 -12.6049 -6.33604 18.0357 
17472 7 19.3657 5.41684 15.2058 13.9283 2.42868 -3.50533 
17499 3 20.5051 2.68172 19.2432 -22.1171 -17.0986 -16.8449 
14905 7 22.1347 5.1137 18.7623 4.09968 -0.253299 -7.22453 
17456 7 16.3268 1.21131 18.6483 7.14792 -1.75564 -4.01474 
20367 9 15.7184 5.61008 18.8859 28.8337 3.76649 24.3318 