ITEM: TIMESTEP
550000
ITEM: NUMBER OF ATOMS
25517
ITEM: BOX BOUNDS pp pp ff
-3.8959205201285124e-01 6.0088135642019459e+01
-1.9452389155355383e+00 5.9115524189537531e+01
-1.2206056431032383e+01 1.1390111600702880e+02
ITEM: ATOMS id type x y z v_stressx v_stressy v_stressz 
25292 7 5.89857 3.03966 7.5916 -2.50201 -8.49654 -6.18699 
25293 7 5.98077 1.53035 7.7064 -1.92028 -5.9036 -1.87561 
25252 6 5.35811 2.25094 7.51796 -6.32448 -3.24401 0.17614 
25287 5 0.61597 0.755495 10.7564 7.91153 -1.6236 5.6178 
25283 5 2.94291 4.2301 9.842 11.0013 6.44022 -13.0653 
25281 4 1.3887 2.44216 9.07367 -12.5786 2.01459 -15.8767 
25280 4 1.07853 5.00258 8.46007 -12.7173 -8.60286 -6.73682 
25277 2 1.45655 3.94107 9.49571 50.8908 35.3109 79.1782 
25215 5 2.99957 0.588718 9.72621 -14.4989 -10.2361 -11.8295 
25209 2 1.59287 0.935181 9.44522 7.4439 -58.381 72.0381 
25188 1 4.8243 2.58953 9.97468 5.59061 1.25027 14.5592 
25214 3 0.796635 0.0137284 8.44439 -2.13629 -4.86237 2.55688 
25282 5 0.520916 4.37471 10.6565 -15.0937 -14.4983 -18.2002 
25458 9 1.40812 -0.435335 7.83607 0.0136806 2.10784 1.74138 
25206 1 4.52732 -1.17961 10.115 34.6505 37.9476 20.1347 
22660 5 6.52822 0.875659 10.2203 -1.15871 -5.73894 -15.6811 
22735 5 6.623 4.87348 10.5536 2.12431 -9.35829 -14.1118 
25505 7 1.83983 5.65447 5.50835 -0.0558809 -0.16232 -0.297515 
22662 3 7.17647 4.29529 8.22411 -12.0578 -23.2005 -18.4798 
22658 3 7.30314 0.346889 7.89736 -14.8864 -15.2658 -11.6203 
22905 9 7.65252 -0.485879 7.46068 0.0185294 -0.415396 -4.48148 
22906 9 7.50322 4.57024 7.35908 -2.75459 4.32027 9.68336 
20115 7 11.1372 2.292 6.49758 0.445619 -0.00799607 -1.16059 
22656 2 7.7059 0.365729 9.40584 21.6098 74.5575 61.5515 
20116 7 12.1136 2.88755 7.40659 19.646 6.68073 2.57432 
20078 6 11.1398 2.86581 7.23657 -15.9065 -11.624 1.86949 
20106 3 13.741 4.72985 7.46261 -15.7756 -11.0486 42.3171 
22657 2 7.60419 5.1024 9.41016 54.3278 -15.1195 20.4728 
20036 3 13.619 0.47741 7.57109 -16.4624 -19.5278 16.8708 
20107 4 13.6664 2.6833 8.8298 -17.9332 -14.2049 -34.0854 
20104 2 13.8784 4.18168 8.97251 31.7156 36.0806 94.7964 
20031 2 13.7132 1.1448 8.96008 62.0298 164.051 14.5399 
20108 5 12.6966 4.70757 9.81807 14.7987 12.0907 1.67983 
20112 5 12.4932 0.846951 9.91178 10.8863 -0.516158 4.51679 
22654 1 10.4859 2.78478 9.68506 11.3684 10.195 11.1521 
22661 5 9.03983 1.11007 9.56315 -7.44034 -6.54581 -16.2885 
22663 5 9.10858 4.7108 9.73761 4.42037 -12.8771 -15.0317 
22563 1 10.886 -1.13469 10.1589 0.0287028 -0.293181 -11.4692 
22659 4 7.7627 -1.12896 9.68153 -9.36208 -34.8716 -34.5346 
22629 6 11.3751 -1.065 7.76545 -16.759 5.06566 2.74842 
22669 7 11.9249 -0.207968 7.44815 1.28912 5.2103 -1.33986 
20352 9 13.8605 1.22514 6.87465 0.709636 12.5144 14.6325 
20189 7 14.2777 3.18994 6.51456 0.281522 13.5103 8.3251 
20353 9 14.543 5.23857 7.22704 7.74595 13.2043 16.7785 
20148 6 14.5671 2.45013 5.87332 0.144324 0.0578408 0.0999254 
22740 7 11.2703 5.5881 6.8279 3.28875 1.47923 -1.14755 
22738 7 8.76742 5.41578 5.90114 -0.684408 0.698008 -1.31477 
22701 6 7.85394 5.37142 5.69312 0.474954 -0.315207 7.77878 
22739 7 7.886 4.86164 4.87022 -0.0110769 0.0203108 0.00860967 
22670 7 11.9327 -1.89861 7.72342 1.0399 1.65766 -5.30838 
20188 7 15.4435 2.20345 6.22553 0.815327 -0.139228 0.0673709 
20037 5 15.0057 0.565552 9.66218 -0.921038 -7.05662 -13.2274 
20118 7 17.8719 2.63796 7.70159 5.6532 -0.318445 -2.93831 
20117 7 17.6995 1.17882 7.44002 3.02668 2.54493 -4.69682 
17799 9 19.455 -0.241526 7.33338 0.312616 6.60301 17.9357 
20077 6 17.1284 2.01775 7.60787 -23.2404 2.3403 26.7079 
17484 3 19.536 4.02271 8.03155 -4.17896 -2.56221 -2.25281 
20109 5 15.1822 4.68195 9.53593 -5.8948 -7.31884 -17.6936 
17480 3 19.3808 0.510653 7.95906 -16.4561 -31.9328 10.9716 
17478 2 19.7385 0.13463 9.405 32.4786 34.1323 48.7059 
17479 2 19.7269 4.90401 9.32133 46.6203 113.069 61.4496 
17485 5 21.0972 4.45706 9.83859 4.86565 -15.9703 -17.0283 
17483 5 21.125 0.57616 9.92672 5.03788 -9.95369 -13.6651 
17482 5 18.7273 0.612358 10.4453 1.10108 -3.53185 -5.35546 
17560 5 18.5746 4.39351 10.2378 -1.2152 1.49863 -12.4087 
20011 1 16.7883 2.43064 10.1919 50.2578 45.8927 49.3318 
20028 1 16.5417 -1.33752 10.1131 23.5862 16.881 10.4955 
17481 4 19.613 -1.37684 9.30614 -12.2998 -19.3361 -37.6129 
17800 9 20.2785 3.41394 7.96437 0.298716 -2.88979 -5.49347 
20002 6 16.2002 -1.21507 7.53432 -10.5074 -7.56584 13.275 
20044 7 15.5857 -0.449442 7.68688 4.37699 8.58038 -2.8195 
20043 7 16.3516 -1.12082 6.60323 0.283734 0.20235 -0.835962 
17377 6 19.8786 -1.6773 6.3322 0.248978 -0.139992 -0.00930664 
17415 7 20.5742 -1.92657 6.98281 2.84053 2.4908 2.06425 
14864 7 23.6314 3.83266 7.75133 5.59457 -4.68639 -1.44142 
14825 6 23.2988 2.969 7.82153 -9.29555 -3.83022 1.35486 
14863 7 24.1611 2.53617 7.90018 3.87781 -1.32005 -0.555917 
17476 1 22.5994 2.5974 10.2549 -65.5478 -41.0068 62.3064 
14928 3 25.5679 4.59148 8.20809 -31.4443 -50.0333 -46.8614 
15246 9 24.7065 0.00657495 8.04332 7.99554 10.7766 20.0493 
14856 3 25.5405 0.383335 8.16649 -12.619 -14.7949 10.7093 
14929 4 25.6618 2.47021 9.27814 -17.7156 -35.2004 -34.2202 
14851 2 25.7726 0.935136 9.6021 19.461 -189.339 76.7014 
14926 2 25.8313 3.99121 9.61155 28.6776 145.89 89.6766 
14857 5 27.172 0.513951 10.0212 -9.76867 -12.0209 -21.0184 
14931 5 27.2703 4.30837 10.1061 -28.293 -11.4693 -17.6945 
14832 1 28.9014 2.41808 10.4207 15.7732 12.5656 56.3076 
14930 5 24.8007 4.37565 10.6576 12.7465 -4.44391 -13.0292 
14934 5 24.7275 0.511689 10.6576 4.70276 -4.17776 -1.51691 
17384 1 22.8636 -1.16741 10.5973 -1.3942 4.60411 -16.4868 
14848 1 28.7231 -1.43222 10.2624 15.1669 18.7522 5.52341 
14898 6 29.1786 2.45721 7.88738 -13.6312 -15.2915 6.36921 
15247 9 26.3681 4.66526 7.72718 -1.6153 -1.09181 -15.303 
14826 6 28.1456 -1.3901 7.71182 1.44498 -3.50819 26.3598 
14861 7 27.5228 -0.59177 7.7367 4.9861 5.85804 -2.23846 
14862 7 28.7608 -1.17174 6.9734 0.154609 0.0383812 -0.06162 
17565 7 23.8543 5.62398 7.62904 12.5342 3.72379 -1.60037 
17491 7 23.3409 -0.830267 7.25909 0.09584 0.0698817 -0.463491 
12347 6 29.4782 5.3719 8.00631 -15.2424 -7.1867 4.07139 
14939 7 29.2544 3.33895 7.63004 0.442987 -0.928205 -1.21744 
17492 7 24.1978 -1.77871 8.08715 8.22232 2.41651 -6.2632 
17450 6 23.2929 -1.42611 8.02021 -21.5684 -6.82484 19.3789 
25291 7 5.22591 6.53661 7.32751 1.18442 1.64132 -3.14239 
25290 7 3.82687 6.55555 6.86919 -0.687931 1.64951 -4.38403 
25253 6 4.33607 6.71227 7.63615 -9.64437 -11.5532 1.91037 
25517 7 1.84279 7.29014 5.50902 -0.0261062 -0.0588788 -0.554144 
25313 6 1.21101 6.45671 5.78137 6.02585 -5.22857 30.3582 
25362 7 1.19888 10.608 6.31952 -0.0167367 -0.0166047 -0.0196211 
25275 1 4.36027 6.50413 10.1833 4.12951 13.0816 7.06731 
25278 8 0.639374 6.49188 7.63496 52.9642 32.0463 10.3131 
22958 9 3.89074 10.3239 7.2783 -3.47576 1.48887 0.285113 
22732 3 4.70032 10.3548 7.96195 2.37019 -12.6548 13.5406 
25359 5 0.701437 8.49354 11.0939 -9.79885 -10.4862 -16.6863 
25356 5 3.08021 12.146 10.2169 9.87392 0.0262396 -13.1741 
25355 5 0.535314 12.2845 10.6518 -2.46607 -5.16934 -7.32302 
25354 4 1.48185 10.2856 9.54639 -13.7802 13.6228 -27.4638 
25353 3 1.39194 12.6945 8.41831 -11.946 -7.59685 4.3993 
25351 2 1.63225 11.8296 9.72046 40.5979 48.6447 67.4555 
25286 5 2.93236 8.28049 10.0288 -5.66982 -16.0569 -18.8603 
25285 4 0.892127 7.85648 8.74192 -20.5595 -18.5864 -4.65165 
25279 2 1.49492 8.71367 9.83417 16.182 98.4228 78.0974 
25259 1 4.86194 10.2149 10.3927 7.44619 9.09982 47.6723 
25327 6 1.60703 9.7444 6.34125 2.34326 1.41794 -0.826204 
25363 7 1.38635 9.50649 7.2315 0.490144 2.66866 1.45231 
22807 5 6.5607 12.2849 10.8694 -15.6437 -14.4482 -17.8498 
22730 5 6.65234 8.34528 10.5398 -4.43483 -14.4735 -12.6197 
22726 8 6.48614 10.4372 7.49213 -1.57027 18.0481 -25.649 
22761 6 7.05704 10.8316 5.66761 1.77115 2.50854 6.85555 
22733 4 6.9844 11.7221 8.61372 -10.9486 -12.8916 -2.72899 
22728 4 7.23016 9.05362 8.29312 -12.8823 -20.2198 -5.74717 
22953 7 7.91026 10.1976 5.3838 -0.0665678 0.100212 -0.652533 
22965 7 7.33207 11.8331 5.45166 -0.0489128 0.141706 -0.277485 
22741 7 11.5 7.01103 7.05421 2.60939 -0.0357533 -1.53186 
22700 6 10.8104 6.36788 7.23855 -16.1234 -2.08775 18.2922 
22636 1 10.9188 6.69179 9.82281 3.773 9.05016 11.7803 
22729 4 7.48133 6.61374 9.11192 -11.2159 -8.47805 -27.0965 
22668 7 10.5831 8.59932 7.42923 1.90661 4.36512 -3.09992 
22725 2 7.70374 8.13304 9.39568 27.0848 30.8127 95.1486 
22727 2 7.53968 12.6129 9.75953 16.7203 133.877 81.3628 
22630 6 10.7174 9.56513 7.55044 -8.18252 0.690126 5.15482 
22667 7 11.6785 9.56 7.58776 1.27339 0.737479 -1.29161 
20110 3 13.3722 8.00482 7.87861 -11.0853 -1.0964 -3.84497 
20176 4 13.3404 12.979 8.33811 -6.63288 -6.96912 -4.15953 
20177 4 13.5478 10.5013 8.95979 -6.29468 -0.24646 -16.305 
20173 2 13.7057 11.9908 9.40771 33.7382 -4.82661 76.9429 
20105 2 13.7244 8.93675 9.12343 -1.83744 6.54865 84.7724 
20178 5 12.5598 12.2564 10.4158 -7.71072 -12.6376 -22.4281 
20183 5 12.8988 8.51128 10.3587 -3.66758 -11.1022 -6.83113 
22734 5 8.97942 12.4092 10.1072 -12.5044 -12.7302 -17.5117 
22723 1 10.5486 10.4168 9.97488 -2.93634 3.96912 9.53162 
22731 5 9.11607 8.33188 9.85191 -15.5813 -24.1542 -21.6113 
20354 9 13.8366 7.1662 8.02076 -1.10181 -12.326 -25.4649 
17489 7 15.3685 7.53149 7.27379 -6.21806 -2.27956 -3.79536 
17490 7 16.4114 7.08597 6.51817 -0.225379 0.0334677 -0.312066 
17451 6 15.9423 6.78743 7.29642 -18.6942 -17.1651 17.6292 
17555 4 19.5148 6.40419 9.24816 -10.7793 2.49116 -18.6906 
20102 1 16.4765 6.46221 9.86905 11.0337 0.423789 18.6932 
20179 5 15.0791 12.3713 9.86379 2.772 3.75063 -11.5407 
20111 5 15.0953 8.51182 9.52882 -26.3962 -13.8814 -14.8735 
17802 9 19.4832 11.878 7.51898 -0.110055 -0.0983484 0.169989 
17554 3 19.6317 8.68088 7.9737 -1.85585 -5.33516 6.17342 
17801 9 19.3812 9.57046 8.10065 0.618186 12.1897 6.37741 
17558 3 19.3121 11.5602 8.35726 -4.10346 -2.05403 -0.791762 
17552 2 19.7279 7.97853 9.40881 24.7751 58.0037 61.5949 
17553 2 19.7446 12.5897 9.5152 41.5283 42.6426 66.0012 
17559 5 21.2085 12.1329 9.83297 6.85508 -0.426254 -10.7986 
17557 5 21.1128 8.33065 9.93016 0.906016 -11.6609 -15.9848 
17556 5 18.49 8.44005 10.194 12.5797 -3.87434 -8.67338 
17631 5 18.754 12.2185 10.6826 1.64963 -5.51384 0.25435 
20084 1 16.8199 10.2664 10.3615 -12.0238 -5.39544 0.0824194 
17566 7 22.7737 6.49197 7.09029 0.0944009 0.0177863 0.0497181 
17525 6 23.2369 6.30614 7.97014 -30.0375 -5.78231 17.2453 
15249 9 26.4199 12.3989 7.50271 0.840334 0.686442 0.277451 
14924 1 28.8784 6.30371 10.2599 25.1871 20.1501 7.25934 
17459 1 22.8153 6.36449 10.4136 -83.0644 -67.9173 38.551 
17550 1 22.6813 10.1773 10.109 18.9308 17.6964 4.88289 
15248 9 25.0074 7.30471 8.25379 6.72189 8.84344 8.75198 
15002 3 25.5553 12.1132 7.86039 -4.8196 -8.80782 8.54729 
14932 3 25.8534 7.69566 8.37038 -4.62568 -4.17569 1.2926 
15003 4 25.6929 10.0578 9.40228 -8.99318 -5.7866 -23.2926 
15000 2 25.8234 11.5586 9.33827 29.2943 103.101 73.4983 
14927 2 25.9265 8.52626 9.67582 39.427 66.5113 73.0065 
15005 5 27.2586 12.0307 9.65026 -1.72748 -12.8308 -17.0535 
14933 5 27.3368 8.19806 10.2714 9.44804 -13.953 -17.0157 
15004 5 24.794 12.1885 10.2281 1.1457 2.95413 -12.6008 
14907 1 29.0423 10.186 10.3202 23.5352 18.6725 21.5779 
15008 5 24.7476 8.17989 10.6591 15.6194 -0.315241 -2.46277 
14899 6 29.4402 9.94521 7.67407 -3.24439 0.034631 5.2642 
17637 7 24.0129 13.1402 7.48134 1.61221 0.649405 -0.164269 
25427 5 0.471403 16.2254 10.9577 6.22994 -3.73252 -4.55755 
25424 5 3.05777 19.7432 10.2643 -15.1022 -6.35094 -10.0671 
25423 5 0.62854 19.9386 10.7649 4.16547 -4.06422 -9.91163 
25422 4 1.53223 17.8586 9.5283 -9.68542 7.03755 -14.4552 
25421 3 1.35286 20.1653 8.46116 -3.22986 -2.55604 -0.118275 
25419 2 1.68921 19.4163 9.80763 -41.4402 139.697 66.747 
25358 5 3.0433 15.9649 10.3935 6.1034 -1.26221 -11.622 
25352 2 1.62447 16.359 9.9389 56.705 2.92476 36.9554 
25333 1 4.76049 17.9652 10.8964 -6.8419 13.7495 -52.9724 
25357 3 1.27516 15.4524 8.77037 -12.0842 -17.6585 19.5942 
25460 9 1.6173 15.8283 7.87293 0.0926797 0.362223 4.26173 
25349 1 4.58657 14.1062 10.6957 5.67293 16.1759 -43.5522 
22803 5 6.49129 16.0975 10.8756 1.41556 -0.43089 0.137875 
22875 5 6.46084 20.071 11.1158 20.041 8.15904 7.93681 
25459 9 1.48999 13.6574 8.56205 -1.32122 5.1467 -4.29227 
22801 3 7.03055 16.5942 8.55987 -2.21797 -6.95263 4.30069 
2179 7 -0.387305 20.8468 8.22815 14.4244 2.15551 -6.31532 
22805 3 7.32975 19.3599 8.91011 -8.50836 -8.76292 26.1488 
22908 9 7.54595 19.9046 8.12021 0.00850108 0.262632 6.54413 
22774 6 7.84223 14.1301 6.46407 2.06372 1.29416 1.98587 
22907 9 7.21638 17.5067 8.66763 -0.073599 20.2748 1.70491 
22800 2 7.69826 20.1918 10.1825 72.2139 58.0979 38.0203 
22810 7 9.52718 17.6319 7.67339 -2.03511 0.95062 -2.00597 
22775 6 10.3724 17.5576 8.1234 -18.0243 -9.02177 6.51826 
22811 7 11.0269 17.744 7.42304 6.07222 1.05456 -1.21145 
20249 3 13.6146 20.1923 8.5115 -17.2529 -16.1014 19.6482 
22799 2 7.50164 15.6895 9.76752 1.33731 21.0855 71.6885 
20181 4 13.1648 15.598 8.7498 -9.63295 -32.0049 -11.7893 
20250 4 13.59 17.8559 9.69511 -13.6327 6.74439 -27.2986 
20247 2 13.6446 19.4223 9.89672 2.61724 29.2308 67.674 
20175 2 13.7411 16.3389 9.95052 43.8193 116.067 86.8123 
20255 5 12.7826 16.0392 11.1348 -2.61275 -11.3143 -16.3074 
20251 5 12.5994 19.887 10.8751 -0.691854 -0.0399589 9.37072 
22797 1 10.5866 17.8329 10.6706 3.35798 -1.75623 14.8452 
22804 5 8.85928 16.0465 10.2629 -4.5602 -11.0606 -14.3913 
22806 5 9.15709 19.6726 10.6518 26.3774 -12.5249 -11.585 
20209 6 12.874 15.0323 5.7533 0.472545 -0.359208 1.53035 
20174 8 12.7095 14.4625 7.54514 27.4291 10.9166 -53.7017 
22802 4 7.35344 14.1712 9.46207 -20.8725 9.39577 -28.8812 
22707 1 10.7485 14.2517 10.2767 12.3146 10.7522 -0.245481 
20180 3 10.8086 14.0423 7.95232 18.2245 -8.85618 5.03795 
20260 7 13.0324 18.8856 6.99744 0.129382 1.33403 1.27566 
20261 7 12.9162 17.3666 7.33817 -0.537545 10.6408 5.76689 
20401 7 13.4229 15.9899 5.62814 -0.160782 0.31165 -1.28644 
20406 9 10.0189 14.4108 7.4707 -1.28303 2.83688 -2.46473 
20413 7 11.9327 15.1884 5.26927 -0.0683383 -0.0247844 -0.439285 
20222 6 12.7014 18.0477 6.67459 -0.748848 0.708369 -1.0019 
22813 7 7.7456 15.0607 6.62462 -0.0731644 -0.0501085 0.057473 
22812 7 7.44152 13.8113 7.30537 0.714975 1.42704 6.43211 
17861 7 18.0327 18.1656 5.18632 -0.0414023 -0.0258491 -0.195717 
17849 7 19.1146 19.332 5.5722 -0.052192 0.152435 -0.567257 
17657 6 18.7692 18.3451 5.88217 -4.87606 -2.63579 15.2892 
20252 5 14.9691 19.7344 10.5394 -8.52738 -13.6165 -17.5332 
20182 5 15.2166 16.0409 10.213 -3.93334 -20.5809 -14.2039 
17622 8 18.5634 18.0799 7.75046 32.2329 27.8408 -14.0879 
17854 9 15.9449 18.6012 8.0719 -0.291311 2.02921 -3.12963 
17628 3 16.7563 18.0742 8.25458 3.98649 -10.0266 9.2445 
17624 4 19.3217 16.6826 8.46567 -7.75609 -11.5575 -3.74601 
17629 4 18.9827 19.4332 8.85904 -13.8136 -12.3493 0.708959 
17621 2 19.6951 15.6526 9.54627 46.2488 95.2272 83.3114 
17623 2 19.5501 20.2671 10.0023 53.2599 25.8199 77.4078 
17630 5 21.0316 19.7719 10.2793 12.3412 -2.7156 -15.9186 
17627 5 21.1919 15.89 9.96206 1.05173 -17.749 -16.9177 
20155 1 16.8424 17.9752 10.6946 2.13885 10.8972 -19.8202 
17626 5 18.7672 15.8963 10.7355 -8.70492 -8.90513 -12.2776 
20171 1 16.7158 14.1373 10.3208 4.07221 5.35333 -28.2431 
17625 4 19.606 14.0957 9.12525 -6.02788 7.88033 -11.7703 
17564 7 21.4906 17.2833 7.58657 -0.600151 1.56192 -1.21912 
17703 5 18.6795 20.0258 11.2014 -14.7557 -12.3091 -20.7763 
17709 7 19.905 20.6273 7.34679 2.88281 4.93088 4.26423 
20259 7 15.568 20.8847 8.4035 12.1794 3.52519 -2.1785 
17526 6 22.4132 17.452 7.70597 -7.54608 -6.66011 17.9124 
17563 7 22.8092 16.6576 7.3521 0.258502 0.340718 -1.91314 
17619 1 22.5682 17.9268 10.3236 11.6006 12.6651 -5.43386 
15250 9 25.4259 16.554 7.3496 3.23954 4.16192 70.4731 
15006 3 25.6058 15.7572 7.92658 -17.34 -12.2117 54.7066 
15072 4 25.3173 20.4252 8.40544 -13.0234 -7.88816 -3.06518 
15073 4 25.9599 17.9542 9.15621 -15.8227 6.08282 -35.8897 
15069 2 25.8295 19.4844 9.52152 46.8187 196.827 70.214 
15075 5 27.2671 19.8707 9.91392 4.93841 -4.31099 -15.2458 
15001 2 25.8934 16.4473 9.39988 31.5511 22.3178 35.6501 
15007 5 27.2951 15.9854 9.7832 -0.516434 -10.3954 -16.0821 
14980 1 29.1857 17.8209 10.1444 -12.947 -20.7983 16.1374 
15074 5 24.8028 19.6389 10.6176 -5.84767 -5.49076 -19.9052 
15079 5 24.8396 16.1163 10.4638 8.71575 -3.42591 0.534302 
12533 7 25.4571 18.3754 7.23091 -0.359734 4.4252 5.87885 
17532 1 22.9834 14.1035 10.1761 9.87127 12.1362 8.57261 
14998 1 28.6373 13.9834 10.0874 20.1079 24.8245 12.8621 
12492 6 25.1645 17.9196 6.43544 -1.27593 -1.7101 -0.891563 
12532 7 24.2391 17.8074 6.45162 -0.0696883 0.00964733 -0.235885 
17636 7 24.2982 14.6547 7.77674 3.17635 -4.68305 -4.244 
17597 6 27.3956 19.7327 6.47718 -16.3779 -1.04193 1.38154 
17635 7 27.0344 19.9354 7.31032 6.35951 1.17906 -2.59324 
17596 6 23.5563 13.9987 7.66239 -11.4394 -1.59982 4.33577 
14974 6 28.7308 14.0837 7.53935 -5.64063 -10.9068 6.89404 
17634 7 26.9707 18.9124 6.11254 0.289445 0.569414 -0.1577 
15084 7 28.6931 18.2675 6.90767 0.590937 2.7701 -1.56015 
15012 7 28.1952 14.867 7.30744 1.76539 1.8001 -1.68663 
15044 6 29.2899 17.8272 7.55162 -18.3119 -15.3427 14.5847 
15011 7 29.5706 14.1102 6.99075 5.03865 0.877158 -0.235401 
25461 9 1.63963 21.1191 8.56579 -0.43494 8.99763 -6.00066 
25417 1 4.459 21.7465 10.9217 -16.5655 -20.0595 -4.48394 
24923 5 0.754769 27.5218 10.9484 5.87963 1.86988 -1.9554 
25425 3 1.35108 22.98 8.77836 -10.5152 -8.37541 18.144 
24927 5 0.559259 23.61 11.1153 15.7874 -1.57129 8.5695 
25426 5 3.10363 23.8017 10.4009 3.64123 -9.57761 -9.23072 
25420 2 1.64879 23.9265 10.0018 35.086 98.1979 58.3737 
25401 1 4.97038 25.5329 10.7242 12.8124 4.83997 10.8865 
24924 5 3.18735 27.1766 10.4054 -6.18132 -6.16921 -14.3125 
24922 4 1.38256 25.4386 9.75254 -16.41 10.3336 -17.0573 
24919 2 1.7823 26.9563 9.95451 0.971282 144.684 61.3633 
24921 3 1.55556 27.7248 8.56562 -3.24129 -0.936545 8.34085 
25462 9 1.60156 23.3783 7.96981 -0.0549559 0.117742 1.81511 
22871 5 6.64021 23.6959 10.9095 4.5817 -4.81936 -4.53627 
25451 9 2.36751 27.8615 8.13061 0.0520965 0.481295 1.55123 
22375 5 6.78156 27.3777 11.2762 1.79399 -4.0282 -4.21612 
20355 9 13.7553 21.1037 8.67011 -2.70019 21.3065 -0.894858 
22873 3 7.36095 26.8242 8.94079 -1.61688 -2.92934 22.5825 
22910 9 7.83453 27.1872 8.16884 0.0147323 0.302816 5.20191 
22881 7 10.5673 22.2037 7.78641 0.177431 0.14555 -0.591838 
22880 7 12.0072 21.7432 8.22322 12.0667 4.41683 -4.56233 
22869 3 7.56442 24.0265 8.5961 -0.844332 -1.2906 0.718349 
22842 6 11.0399 21.8185 8.50693 -11.6175 -8.52732 2.70641 
22909 9 7.42422 24.9915 8.72358 -0.318731 9.50531 -0.592682 
22870 4 7.80675 21.6814 9.76784 -9.80949 13.0603 -14.2639 
22781 1 10.8959 21.6885 11.0129 -25.5453 -18.848 26.7335 
22868 2 7.76545 27.7412 10.1816 37.8316 98.0335 41.0331 
22867 2 7.78902 23.2324 9.92461 53.6911 189.406 71.167 
22381 7 12.0152 26.341 8.4485 11.0325 9.22504 -1.2283 
20253 3 13.4682 23.4016 8.82795 -29.2253 -27.4562 7.06971 
22380 7 10.8121 26.2531 7.54966 0.0747237 0.106699 0.0988862 
22342 6 11.2091 25.8188 8.3988 -19.4434 -2.84827 29.357 
20317 3 13.3219 27.8427 9.08682 -10.1465 -13.3179 -8.70043 
20248 2 13.7696 24.0294 10.2263 8.86267 3.13016 107.902 
20318 4 13.624 25.5447 10.0164 -29.2055 -19.0502 -43.1113 
20315 2 13.7788 27.0543 10.3348 51.2458 -14.1281 81.9095 
22865 1 10.6865 25.3992 10.9226 12.0353 10.7301 17.3086 
22872 5 9.17462 23.6871 10.462 5.45328 -15.4481 -14.0322 
22874 5 9.24947 27.6706 10.5948 6.67235 -9.82781 -10.3095 
20356 9 12.5954 23.6209 8.49206 10.2644 3.84255 -9.90018 
25431 7 14.1509 26.52 7.83751 1.05746 4.73873 6.74339 
20323 5 12.8525 23.6161 11.429 1.66306 -7.7968 1.50975 
25430 7 14.093 24.9955 7.86813 1.63568 4.74108 10.4797 
25395 6 14.4016 25.7329 7.27378 -0.137442 0.0908151 -0.157296 
20258 7 15.2294 22.3163 8.12146 1.33871 0.111776 -1.35414 
20223 6 16.0015 21.7513 8.2238 -7.30304 -1.18685 8.79394 
20245 1 16.5342 21.695 10.8038 16.1603 20.4963 24.7324 
17698 4 19.4354 21.7483 9.56107 -12.061 -3.70867 -29.1766 
20320 5 15.2214 27.4242 10.856 4.43885 -11.45 -15.1123 
20254 5 15.1801 23.5949 10.561 -15.9766 -11.3174 -19.8024 
20329 7 17.2434 26.6466 8.28058 4.00286 3.2039 -3.61888 
20328 7 16.0419 25.8023 7.61998 1.70152 -0.0160524 -0.075592 
17803 9 18.6355 24.4714 8.19816 9.15642 9.21005 -0.523775 
20290 6 16.6573 25.8385 8.42977 -27.1074 -4.76253 8.00703 
17697 3 19.4666 23.9299 8.24968 -7.41818 -15.3955 6.87055 
17701 3 18.7572 27.5768 9.07536 -11.4248 -29.5374 -3.69675 
17695 2 19.6311 23.298 9.64847 1.93983 4.91577 79.9672 
17696 2 19.6976 27.9701 10.2409 33.8957 100.46 93.9696 
17700 5 20.9899 23.6351 10.1729 -17.5276 -7.5674 -19.4907 
17702 5 21.0953 27.3466 10.1236 8.0326 -13.3316 -21.1296 
17699 5 18.7076 23.7838 10.7613 -3.04871 -4.22284 -1.72916 
20229 1 17.0048 25.6018 10.9426 17.6562 15.131 -34.8856 
17708 7 20.0702 22.1005 7.0657 -0.254227 1.39469 0.750583 
17670 6 20.1319 21.2549 6.64674 -0.732685 0.851171 -1.20091 
17707 7 20.7868 25.2363 7.6314 4.67193 4.91482 -0.0528838 
17706 7 21.1787 26.5559 8.43819 0.130943 6.49678 6.8869 
17671 6 21.5933 25.7538 7.94146 -0.368878 -4.76902 5.21954 
17804 9 18.1596 28.2261 8.79174 4.30654 -0.372388 -3.02049 
15302 9 22.12 22.0167 7.2663 -10.7858 2.28218 -0.709417 
15082 7 28.9341 21.4367 6.98265 -0.126301 1.91318 -3.14737 
15309 7 26.1711 21.1856 5.56242 -0.0510676 0.354104 -0.583038 
15297 7 25.7773 22.9358 5.36905 0.0248667 0.422188 0.0396078 
15076 3 22.8653 21.7306 7.945 5.24529 -10.2425 6.92222 
15105 6 25.4296 21.9972 5.7434 2.50755 2.79725 8.81144 
15067 1 28.5009 21.8246 10.3102 7.93927 14.4369 40.1485 
17603 1 22.8719 21.8054 10.3091 41.9335 31.0712 67.07 
15070 8 24.6898 21.8654 7.53391 8.71187 21.9678 -6.04535 
15157 7 24.761 24.7113 6.5409 0.0984924 1.43459 -2.31404 
17693 1 22.4585 25.6458 10.3024 35.3898 46.9967 57.4157 
15118 6 24.3516 25.0692 5.80024 0.215455 -0.0171103 -0.0760846 
15156 7 23.4675 25.4068 6.08223 0.348452 0.0661208 -0.0176547 
12750 9 28.7793 27.0604 8.02173 -18.1468 -1.30382 -3.47736 
15145 3 25.8709 28.1424 8.32624 -24.9814 -10.0472 24.3503 
15077 4 25.2347 23.1977 8.50469 -14.8053 -21.7882 -11.8106 
15146 4 25.5466 25.6818 9.29943 -7.76747 17.8463 -15.9481 
15143 2 25.8227 27.2278 9.63665 34.0718 57.5278 42.9343 
15071 2 25.6377 24.1622 9.58877 42.4018 136.994 72.8222 
15078 5 27.0823 23.775 9.8664 3.30208 -1.4868 -12.8552 
15148 5 27.2019 27.5255 10.2775 11.2289 -13.2646 -16.1976 
15051 1 28.9278 25.6837 10.4438 0.234655 13.2668 44.0086 
15147 5 24.7278 27.7419 10.5663 3.60802 -2.00167 -8.38232 
12524 3 29.1596 26.0649 8.01414 -11.3017 -1.29751 8.86407 
15045 6 29.2043 21.7754 7.82857 -18.5018 -10.9736 5.46087 
15251 9 25.5134 27.6474 7.63837 -0.0940207 -0.297296 15.509 
15151 5 24.6677 23.8201 10.7274 -4.76694 -7.98722 -17.0075 
25272 7 0.535968 4.34138 16.1107 1.6486 -4.32467 -0.462987 
25198 5 4.5419 2.55475 12.6561 -17.2476 -10.0591 -10.6202 
25195 5 4.3158 -1.09258 12.7632 -0.775892 -3.31399 3.57641 
25511 9 0.33796 2.24735 15.6819 -5.68441 1.14452 -2.61436 
22635 1 6.05896 0.692999 12.8525 -15.8437 -2.34375 -11.3721 
25268 5 2.06322 2.89899 12.9931 -0.293196 -11.6316 -23.615 
25258 1 0.250924 4.4912 12.7638 6.16356 2.65113 -0.28797 
25207 1 0.476342 0.786529 13.0733 13.6359 40.9831 27.3694 
25191 2 3.47612 3.03985 13.5769 19.2308 130.575 58.8777 
25263 4 3.57926 4.53329 13.9916 -28.67 9.12157 -38.745 
25197 4 3.26023 2.0922 14.7531 -18.3703 -30.2298 -13.266 
25192 4 3.04502 -0.482259 14.848 -4.46517 -13.1437 -6.27732 
25196 3 0.765075 1.35344 15.4014 12.8599 -3.62453 11.1989 
25190 8 2.57412 0.897535 15.8275 18.5765 16.7598 -12.986 
25240 6 3.35984 0.793114 17.5482 0.378973 -14.8075 18.873 
25519 7 2.89164 0.150199 18.2995 -1.84108 3.66576 -3.09718 
25507 7 3.51864 1.65248 18.1768 3.24413 4.72175 14.3571 
25308 6 0.0952839 4.48453 15.2775 -23.1187 -3.335 3.92818 
25270 6 1.8341 4.46614 17.8969 -15.6682 13.8307 19.9779 
22655 1 6.37544 4.67075 12.8239 -14.5237 7.13988 -9.35927 
25194 5 1.89442 -1.62182 13.1754 -0.106157 -12.8901 -18.1686 
25189 2 3.31878 -1.5892 13.8009 41.4633 198.383 98.4801 
25309 7 2.6316 4.63382 17.2579 19.8453 -1.28827 -5.20505 
22683 6 6.24491 0.622018 15.3496 -3.84878 0.498785 10.0474 
22644 3 6.73711 4.45152 15.1509 29.9845 -6.534 4.94544 
22650 7 5.52322 0.105381 15.8898 9.05897 2.99827 3.30615 
22959 9 6.05523 5.16867 15.4848 13.6912 8.1069 -2.21132 
22649 6 4.13961 4.25485 16.7024 -34.1074 9.59001 -28.9489 
22684 7 4.04204 3.41056 16.2148 2.34676 5.86064 5.08089 
22687 7 6.09221 0.466277 19.0482 2.70189 5.46616 -2.03848 
20062 7 5.95191 2.41786 18.2788 2.51675 8.4811 -2.44536 
25310 7 2.03805 5.19712 18.5898 -0.502912 21.6257 6.71013 
22759 7 5.14741 4.86123 18.489 3.07573 0.138263 0.0734696 
22651 7 6.58374 1.16593 16.1478 1.98045 4.39233 14.6056 
22685 7 4.27085 4.8759 15.9256 -0.468293 19.2804 14.8608 
20023 6 6.69385 1.75507 18.1845 -19.5537 -14.3733 -9.32911 
25472 9 2.21889 3.1501 19.0861 2.33972 15.0281 -46.7468 
25237 7 -0.067327 -0.113492 18.8812 2.42272 1.94369 -3.3979 
22717 6 5.13305 4.36306 19.3154 -22.7357 -5.86723 -8.58596 
25312 7 0.109062 4.32107 18.7613 20.3202 -0.628379 3.2509 
22760 7 4.39532 3.73353 19.1099 15.7323 7.2513 -1.01945 
20061 7 7.35764 2.05943 18.8213 14.8258 0.41129 4.90713 
20022 6 13.3873 -0.795277 17.0007 -5.78589 -8.71664 11.5213 
20101 7 8.35736 0.671122 17.1653 -5.78909 -1.8548 -1.2234 
22931 9 9.59502 -0.763366 15.7473 0.564288 1.31125 48.0862 
22643 5 10.3472 2.57234 12.1955 -3.03745 -4.66107 -10.2673 
20083 1 12.0539 4.57824 12.2941 5.49904 3.6404 22.2435 
22642 5 7.78438 2.32799 12.6693 -1.66392 -7.39075 -20.416 
22572 5 10.3915 -1.19034 12.4814 0.740998 -7.45998 -0.744952 
22647 5 8.01803 -1.15376 13.3887 13.8225 -13.1476 -19.0017 
20029 1 12.4935 0.818447 12.5759 -8.86196 -5.20956 -8.08378 
20095 5 13.8672 2.81253 13.0198 1.50518 -12.4462 -14.0245 
22637 2 9.23854 2.21284 13.1776 47.071 129.49 76.1251 
22565 2 9.47766 -0.798971 13.6553 34.57 49.251 45.6764 
22641 4 9.6135 0.790931 13.697 -31.9042 18.2531 -33.5432 
22640 4 9.10375 3.21619 14.2882 -11.7457 -14.8995 -11.6284 
20060 6 12.0221 1.27007 15.13 -15.1099 -6.71415 21.858 
20025 7 11.0663 1.06912 15.0996 7.85754 3.64008 -0.552928 
22638 8 8.61758 4.52037 15.3916 71.843 38.3266 40.9752 
20024 7 12.0464 1.01981 16.1045 3.83837 4.5946 2.75154 
22688 6 9.45557 4.01094 17.0316 2.46649 6.11107 25.774 
20130 6 9.24084 0.461672 17.3293 -13.8109 -7.17067 -0.793823 
20016 5 13.8732 -1.10957 13.0216 4.79848 -14.805 -18.084 
20100 7 9.22452 -0.127703 18.0879 -4.98361 9.33277 12.476 
22967 7 9.28045 4.52666 17.9663 0.85456 6.39159 23.0669 
22571 3 9.81477 -1.39042 15.0598 -28.9175 -15.2908 25.9391 
20135 7 12.0674 0.0854376 18.7802 3.5715 5.82286 0.239199 
22955 7 9.36061 2.97938 17.3545 0.568096 12.6187 3.85148 
20064 7 14.0825 -0.485246 16.3486 15.2036 5.11112 17.7337 
20134 7 10.8564 0.83574 18.9337 4.1006 3.52163 -1.81623 
20379 9 14.1088 1.76835 15.1235 27.0556 10.6144 9.03208 
20096 6 11.7813 0.937892 19.1918 -15.172 -0.654385 10.1619 
20098 7 11.946 4.33526 18.5576 1.50361 2.15911 2.77209 
20063 7 13.887 -0.967586 17.8045 0.287955 1.31039 -0.486379 
20366 9 14.2447 1.84598 19.2101 8.09509 10.3038 23.4886 
17457 7 18.3404 -0.500753 18.851 3.14177 0.0142229 0.334737 
20378 9 15.4007 0.0444891 14.8487 1.58901 130.31 35.5022 
20012 2 15.2359 -1.61828 13.5115 12.8269 48.8385 77.5571 
17469 5 19.9364 -1.30131 13.4326 -12.4027 -11.8133 -12.5885 
20017 5 16.2815 -1.21496 12.5395 10.6852 -0.600751 -3.89319 
20020 5 16.2894 2.4578 12.6312 -3.55753 -5.08461 -6.53661 
17477 1 18.4308 4.50707 12.7514 50.3091 43.836 64.4843 
17458 1 18.218 0.637135 12.871 60.9486 45.9241 8.27256 
17464 5 19.9587 2.61017 13.0923 -8.85176 -11.8233 -14.8243 
20014 3 15.3481 -0.927596 14.9324 -27.6849 -10.2811 33.2168 
20013 2 15.2355 2.86552 13.6686 22.9269 -44.4543 49.0748 
20089 4 15.4847 4.41259 13.8828 -10.9973 6.95688 -17.5525 
17460 2 21.2934 2.30374 13.8302 64.5972 47.7824 46.7311 
17386 2 21.2555 -0.760946 14.0881 53.2084 100.836 36.1112 
20019 3 15.1048 1.95386 14.8573 3.55357 -13.6246 -5.65839 
17466 6 17.7819 0.48016 15.3182 -19.9284 -14.5038 9.5905 
17494 7 16.8826 0.841709 15.4767 15.0506 8.60803 -4.58383 
17493 7 18.2396 0.477831 16.2161 8.51044 3.64383 5.00243 
17471 6 19.3376 2.53313 17.1161 1.54974 -16.6379 21.3839 
17510 7 19.2921 1.5947 17.167 0.286346 2.75789 -4.0534 
17509 7 19.9518 2.78115 17.9167 9.01789 -1.73408 21.0947 
17463 4 21.2166 0.803669 14.1626 -16.0442 -17.3238 -27.2583 
17508 6 18.6545 5.0309 15.3614 -16.4409 -0.647759 22.887 
14959 7 20.2645 -1.15138 17.8856 -1.81717 9.40753 5.88657 
14960 7 20.3279 0.212434 18.4332 -2.09962 -2.53662 -4.59853 
17391 3 21.5042 -1.27256 15.5584 -20.7662 -28.0602 4.76631 
17825 9 21.1364 -0.585255 16.1294 -0.0207623 7.34765 -81.4507 
17462 3 21.3572 3.10476 15.1558 -23.8279 -19.7725 1.71354 
14918 6 19.9915 -0.221188 17.7072 -0.699663 -8.93564 -18.8096 
17826 9 20.6309 2.78219 15.7376 0.259543 -1.5542 -34.5598 
17473 7 18.5799 4.27919 16.0165 1.64415 5.62916 0.204063 
17583 7 18.0511 3.21634 18.3717 5.47992 3.9391 3.58095 
17544 6 17.4311 3.68211 18.973 -20.4352 -17.3232 13.4936 
17474 7 17.3534 -1.77019 15.7334 9.71278 12.0756 -1.87831 
17582 7 16.6091 3.14878 18.9219 15.175 6.22974 -0.783804 
17827 9 21.4378 4.95813 15.0614 1.14882 33.2557 7.76426 
17472 7 19.4271 5.47683 15.7298 10.0503 -0.501122 -2.43568 
20367 9 15.1719 4.87595 19.0202 3.03779 1.79991 1.10341 
15310 7 26.4962 -0.708044 16.5521 0.28372 -4.52757 -10.3968 
17392 5 22.3788 -1.113 13.0479 11.026 -1.1434 7.17699 
14833 2 27.436 -1.7351 13.7653 12.336 -67.6935 73.2575 
14837 5 26.0685 -1.25524 13.3193 5.88622 -13.0717 -13.7393 
14835 3 27.8877 -1.24832 15.1929 -12.7062 -51.7546 37.9605 
17465 5 22.4822 2.65522 12.8638 -2.68304 1.29563 -2.7692 
14838 5 28.4591 -1.17305 12.8109 1.19469 -6.25434 -9.19273 
14840 5 28.4301 2.34442 12.9979 -7.89909 -1.85171 1.65243 
14906 1 24.3647 4.44957 12.9572 46.9619 36.0308 -75.8268 