ITEM: TIMESTEP
410000
ITEM: NUMBER OF ATOMS
25517
ITEM: BOX BOUNDS pp pp ff
-3.8959205201285124e-01 6.0088135642019459e+01
-1.9452389155355383e+00 5.9115524189537531e+01
-1.2206056431032383e+01 1.1390111600702880e+02
ITEM: ATOMS id type x y z v_stressx v_stressy v_stressz 
25292 7 5.89857 3.03966 7.5916 -2.49306 -8.47292 -6.25347 
25293 7 5.98077 1.53035 7.7064 -1.91164 -5.90056 -1.93611 
25252 6 5.35811 2.25094 7.51796 -6.3078 -3.26073 0.226736 
25287 5 0.61597 0.755495 10.7564 8.06731 -1.66981 4.61153 
25283 5 2.94291 4.2301 9.842 10.8245 6.3989 -12.9891 
25281 4 1.3887 2.44216 9.07367 -13.0126 1.80333 -15.9181 
25280 4 1.07853 5.00258 8.46007 -12.8449 -8.52684 -6.57068 
25277 2 1.45655 3.94107 9.49571 51.1132 35.8307 78.305 
25215 5 2.99957 0.588718 9.72621 -14.638 -10.0085 -11.5144 
25209 2 1.59287 0.935181 9.44522 8.80992 -58.7037 71.4102 
25188 1 4.8243 2.58953 9.97468 5.40667 1.4117 13.9059 
25214 3 0.796635 0.0137284 8.44439 -2.08507 -4.60379 2.7725 
25282 5 0.520916 4.37471 10.6565 -14.6945 -14.5596 -18.0786 
25458 9 1.40812 -0.435335 7.83607 0.0257292 2.12789 1.74996 
25206 1 4.52732 -1.17961 10.115 34.6336 37.8913 19.9224 
22660 5 6.52822 0.875659 10.2203 -1.05644 -5.53765 -14.5289 
22735 5 6.623 4.87348 10.5536 2.39921 -9.38666 -15.4383 
25505 7 1.83983 5.65447 5.50835 -0.0563866 -0.164094 -0.29762 
22662 3 7.17647 4.29529 8.22411 -12.0902 -23.4028 -18.4283 
22658 3 7.30314 0.346889 7.89736 -15.0153 -15.1614 -11.271 
22905 9 7.65252 -0.485879 7.46068 0.0219875 -0.416355 -4.48677 
22906 9 7.50322 4.57024 7.35908 -2.72973 4.34425 9.6894 
20115 7 11.1372 2.292 6.49758 0.446403 -0.00677878 -1.14376 
22656 2 7.7059 0.365729 9.40584 22.5632 73.6373 60.5749 
20116 7 12.1136 2.88755 7.40659 19.6424 6.68304 2.59868 
20078 6 11.1398 2.86581 7.23657 -15.9313 -11.6398 1.68847 
20106 3 13.741 4.72985 7.46261 -15.6598 -11.1137 42.3397 
22657 2 7.60419 5.1024 9.41016 54.1909 -14.6989 23.3892 
20036 3 13.619 0.47741 7.57109 -16.5609 -19.5463 16.8586 
20107 4 13.6664 2.6833 8.8298 -17.8075 -14.1001 -33.8395 
20104 2 13.8784 4.18168 8.97251 31.2628 36.6344 95.1848 
20031 2 13.7132 1.1448 8.96008 62.2424 163.994 14.0736 
20108 5 12.6966 4.70757 9.81807 14.6519 11.9497 1.73143 
20112 5 12.4932 0.846951 9.91178 10.9602 -0.398823 6.40198 
22654 1 10.4859 2.78478 9.68506 11.3546 10.2775 10.9345 
22661 5 9.03983 1.11007 9.56315 -7.56418 -6.41839 -15.8687 
22663 5 9.10858 4.7108 9.73761 4.38636 -12.9767 -15.3882 
22563 1 10.886 -1.13469 10.1589 -1.64252 -0.585757 -32.8078 
22659 4 7.7627 -1.12896 9.68153 -9.6468 -34.7829 -34.6002 
22629 6 11.3751 -1.065 7.76545 -16.7958 5.01381 2.64475 
22669 7 11.9249 -0.207968 7.44815 1.30878 5.21875 -1.2942 
20352 9 13.8605 1.22514 6.87465 0.714872 12.5227 14.6546 
20189 7 14.2777 3.18994 6.51456 0.281781 13.5158 8.34029 
20353 9 14.543 5.23857 7.22704 7.74695 13.2274 16.8228 
20148 6 14.5671 2.45013 5.87332 0.144092 0.0575613 0.0987361 
22740 7 11.2703 5.5881 6.8279 3.28146 1.48613 -1.17414 
22738 7 8.76742 5.41578 5.90114 -0.671249 0.695881 -1.3455 
22701 6 7.85394 5.37142 5.69312 0.433359 -0.297886 7.85932 
22739 7 7.886 4.86164 4.87022 -0.0109896 0.0202066 0.00850113 
22670 7 11.9327 -1.89861 7.72342 1.05746 1.66274 -5.28555 
20188 7 15.4435 2.20345 6.22553 0.81634 -0.139078 0.0677467 
20037 5 15.0057 0.565552 9.66218 -1.01019 -6.91229 -12.9725 
20118 7 17.8719 2.63796 7.70159 5.65692 -0.349425 -2.98477 
20117 7 17.6995 1.17882 7.44002 3.03818 2.53765 -4.75061 
17799 9 19.455 -0.241526 7.33338 0.335034 6.59961 17.9203 
20077 6 17.1284 2.01775 7.60787 -23.2797 2.46923 27.0661 
17484 3 19.536 4.02271 8.03155 -4.18525 -2.56271 -2.39676 
20109 5 15.1822 4.68195 9.53593 -5.86481 -7.37309 -17.9278 
17480 3 19.3808 0.510653 7.95906 -16.5699 -31.9062 10.8224 
17478 2 19.7385 0.13463 9.405 32.6135 34.5269 49.1625 
17479 2 19.7269 4.90401 9.32133 46.7934 112.924 63.134 
17485 5 21.0972 4.45706 9.83859 4.85719 -15.9595 -16.9423 
17483 5 21.125 0.57616 9.92672 5.10433 -10.0551 -13.676 
17482 5 18.7273 0.612358 10.4453 1.26861 -3.63395 -5.71421 
17560 5 18.5746 4.39351 10.2378 -1.19708 1.54866 -11.9195 
20011 1 16.7883 2.43064 10.1919 50.6993 46.26 51.6322 
20028 1 16.5417 -1.33752 10.1131 23.8894 16.9706 9.83989 
17481 4 19.613 -1.37684 9.30614 -12.3712 -19.5732 -38.0716 
17800 9 20.2785 3.41394 7.96437 0.304065 -2.89592 -5.45382 
20002 6 16.2002 -1.21507 7.53432 -10.4046 -7.5388 13.4319 
20044 7 15.5857 -0.449442 7.68688 4.32748 8.56323 -2.93539 
20043 7 16.3516 -1.12082 6.60323 0.282212 0.20182 -0.836316 
17377 6 19.8786 -1.6773 6.3322 0.247166 -0.140205 -0.00632353 
17415 7 20.5742 -1.92657 6.98281 2.86057 2.4998 2.05752 
14864 7 23.6314 3.83266 7.75133 5.57945 -4.68704 -1.43896 
14825 6 23.2988 2.969 7.82153 -9.27237 -3.82459 1.33409 
14863 7 24.1611 2.53617 7.90018 3.86704 -1.31616 -0.56163 
17476 1 22.5994 2.5974 10.2549 -65.3774 -41.0647 55.3738 
14928 3 25.5679 4.59148 8.20809 -31.4015 -50.0207 -46.858 
15246 9 24.7065 0.00657495 8.04332 7.97195 10.759 19.9845 
14856 3 25.5405 0.383335 8.16649 -12.5862 -14.7453 10.7908 
14929 4 25.6618 2.47021 9.27814 -17.6449 -35.1255 -34.206 
14851 2 25.7726 0.935136 9.6021 18.886 -189.825 76.5024 
14926 2 25.8313 3.99121 9.61155 28.1899 146.403 89.3148 
14857 5 27.172 0.513951 10.0212 -9.50899 -11.8161 -21.0871 
14931 5 27.2703 4.30837 10.1061 -28.2113 -11.6578 -17.7734 
14832 1 28.9014 2.41808 10.4207 14.9464 12.1726 42.6295 
14930 5 24.8007 4.37565 10.6576 12.7353 -4.56163 -12.3651 
14934 5 24.7275 0.511689 10.6576 4.7499 -3.9 -0.527666 
17384 1 22.8636 -1.16741 10.5973 0.022452 4.3952 4.63848 
14848 1 28.7231 -1.43222 10.2624 14.1558 19.1389 -31.8899 
14898 6 29.1786 2.45721 7.88738 -13.636 -15.396 6.27525 
15247 9 26.3681 4.66526 7.72718 -1.61302 -1.09324 -15.3035 
14826 6 28.1456 -1.3901 7.71182 1.21821 -3.39049 26.833 
14861 7 27.5228 -0.59177 7.7367 5.02373 5.84519 -2.2416 
14862 7 28.7608 -1.17174 6.9734 0.156014 0.0382017 -0.0644623 
17565 7 23.8543 5.62398 7.62904 12.5221 3.74404 -1.56302 
17491 7 23.3409 -0.830267 7.25909 0.0955844 0.0720443 -0.463041 
12347 6 29.4782 5.3719 8.00631 -15.2125 -7.20206 4.32389 
14939 7 29.2544 3.33895 7.63004 0.442885 -0.921691 -1.2173 
17492 7 24.1978 -1.77871 8.08715 8.21249 2.46982 -6.2385 
17450 6 23.2929 -1.42611 8.02021 -21.5727 -6.98148 19.2284 
25291 7 5.22591 6.53661 7.32751 1.18252 1.64727 -3.19668 
25290 7 3.82687 6.55555 6.86919 -0.695711 1.65066 -4.42633 
25253 6 4.33607 6.71227 7.63615 -9.62203 -11.5722 2.28269 
25517 7 1.84279 7.29014 5.50902 -0.0253829 -0.0572042 -0.552152 
25313 6 1.21101 6.45671 5.78137 5.99174 -5.20274 30.2898 
25362 7 1.19888 10.608 6.31952 -0.0143283 -0.00150107 -0.0276 
25275 1 4.36027 6.50413 10.1833 4.49209 13.2019 10.5683 
25278 8 0.639374 6.49188 7.63496 53.0849 31.7347 9.49433 
22958 9 3.89074 10.3239 7.2783 -3.45614 1.51493 0.262911 
22732 3 4.70032 10.3548 7.96195 2.35178 -12.661 13.7112 
25359 5 0.701437 8.49354 11.0939 -9.70593 -10.5223 -16.8721 
25356 5 3.08021 12.146 10.2169 9.83274 0.0372728 -13.3268 
25355 5 0.535314 12.2845 10.6518 -2.8157 -5.15024 -8.49258 
25354 4 1.48185 10.2856 9.54639 -13.8544 13.8381 -27.6499 
25353 3 1.39194 12.6945 8.41831 -12.4787 -8.5039 2.76442 
25351 2 1.63225 11.8296 9.72046 40.7721 47.8438 69.1106 
25286 5 2.93236 8.28049 10.0288 -5.68805 -15.9141 -19.224 
25285 4 0.892127 7.85648 8.74192 -20.6293 -18.6598 -4.94936 
25279 2 1.49492 8.71367 9.83417 16.1743 98.2892 79.11 
25259 1 4.86194 10.2149 10.3927 7.97042 9.64728 56.7217 
25327 6 1.60703 9.7444 6.34125 2.31167 1.2521 -0.715958 
25363 7 1.38635 9.50649 7.2315 0.524748 2.826 1.36415 
22807 5 6.5607 12.2849 10.8694 -15.7641 -14.5308 -17.9302 
22730 5 6.65234 8.34528 10.5398 -4.57385 -14.4999 -13.2979 
22726 8 6.48614 10.4372 7.49213 -1.58305 17.9239 -26.2274 
22761 6 7.05704 10.8316 5.66761 1.74243 2.50132 6.79254 
22733 4 6.9844 11.7221 8.61372 -10.8695 -12.7322 -2.31988 
22728 4 7.23016 9.05362 8.29312 -12.8639 -20.3109 -5.60144 
22953 7 7.91026 10.1976 5.3838 -0.066268 0.100295 -0.651499 
22965 7 7.33207 11.8331 5.45166 -0.0480849 0.14175 -0.276157 
22741 7 11.5 7.01103 7.05421 2.60093 -0.0306437 -1.55975 
22700 6 10.8104 6.36788 7.23855 -16.0993 -2.13863 18.4321 
22636 1 10.9188 6.69179 9.82281 4.27237 9.18943 12.0083 
22729 4 7.48133 6.61374 9.11192 -11.1608 -8.39939 -27.3942 
22668 7 10.5831 8.59932 7.42923 1.91349 4.34867 -3.17522 
22725 2 7.70374 8.13304 9.39568 27.0246 31.1288 96.356 
22727 2 7.53968 12.6129 9.75953 16.9255 132.754 79.7841 
22630 6 10.7174 9.56513 7.55044 -8.21583 0.726057 5.31264 
22667 7 11.6785 9.56 7.58776 1.27127 0.730687 -1.32493 
20110 3 13.3722 8.00482 7.87861 -10.9717 -1.08883 -3.9077 
20176 4 13.3404 12.979 8.33811 -6.6436 -6.9527 -4.14401 
20177 4 13.5478 10.5013 8.95979 -6.32848 -0.370443 -16.4704 
20173 2 13.7057 11.9908 9.40771 34.5427 -5.01155 78.2458 
20105 2 13.7244 8.93675 9.12343 -1.81418 6.65163 85.729 
20178 5 12.5598 12.2564 10.4158 -7.78849 -12.4751 -22.5727 
20183 5 12.8988 8.51128 10.3587 -3.866 -11.1781 -7.27631 
22734 5 8.97942 12.4092 10.1072 -12.5387 -12.5869 -17.475 
22723 1 10.5486 10.4168 9.97488 -2.99853 4.38262 9.9694 
22731 5 9.11607 8.33188 9.85191 -15.532 -24.3009 -22.1146 
20354 9 13.8366 7.1662 8.02076 -1.1331 -12.3021 -25.2851 
17489 7 15.3685 7.53149 7.27379 -6.20376 -2.27069 -3.7396 
17490 7 16.4114 7.08597 6.51817 -0.224891 0.0340594 -0.311982 
17451 6 15.9423 6.78743 7.29642 -18.7686 -17.2542 17.2386 
17555 4 19.5148 6.40419 9.24816 -10.8917 2.43273 -19.1669 
20102 1 16.4765 6.46221 9.86905 10.8956 -0.0206692 19.2683 
20179 5 15.0791 12.3713 9.86379 2.6713 3.81262 -11.5889 
20111 5 15.0953 8.51182 9.52882 -26.2495 -13.8288 -14.8367 
17802 9 19.4832 11.878 7.51898 -0.108464 -0.0992269 0.166073 
17554 3 19.6317 8.68088 7.9737 -1.85906 -5.30649 6.11768 
17801 9 19.3812 9.57046 8.10065 0.619628 12.157 6.36735 
17558 3 19.3121 11.5602 8.35726 -4.13739 -2.09524 -0.585893 
17552 2 19.7279 7.97853 9.40881 25.4699 57.1721 61.2574 
17553 2 19.7446 12.5897 9.5152 43.2171 42.8224 71.1061 
17559 5 21.2085 12.1329 9.83297 6.73933 -0.496074 -11.3641 
17557 5 21.1128 8.33065 9.93016 0.884883 -11.4547 -15.8496 
17556 5 18.49 8.44005 10.194 12.4286 -3.9476 -6.50965 
17631 5 18.754 12.2185 10.6826 1.89294 -5.45309 -4.33264 
20084 1 16.8199 10.2664 10.3615 -11.167 -3.82107 -1.2622 
17566 7 22.7737 6.49197 7.09029 0.0942957 0.0185944 0.0518477 
17525 6 23.2369 6.30614 7.97014 -29.9107 -5.88706 17.2137 
15249 9 26.4199 12.3989 7.50271 0.841964 0.687085 0.255635 
14924 1 28.8784 6.30371 10.2599 24.3596 20.1115 -15.3439 
17459 1 22.8153 6.36449 10.4136 -82.9573 -68.2194 40.247 
17550 1 22.6813 10.1773 10.109 18.7461 17.8622 8.66935 
15248 9 25.0074 7.30471 8.25379 6.75028 8.8485 8.76086 
15002 3 25.5553 12.1132 7.86039 -4.78711 -8.77842 8.88623 
14932 3 25.8534 7.69566 8.37038 -4.67115 -4.18503 1.32498 
15003 4 25.6929 10.0578 9.40228 -9.20758 -6.06842 -23.4008 
15000 2 25.8234 11.5586 9.33827 29.4268 102.285 72.2247 
14927 2 25.9265 8.52626 9.67582 40.3872 66.8055 73.4041 
15005 5 27.2586 12.0307 9.65026 -1.60864 -12.7269 -16.9866 
14933 5 27.3368 8.19806 10.2714 9.5893 -13.8603 -17.4264 
15004 5 24.794 12.1885 10.2281 0.967329 3.17835 -13.1095 
14907 1 29.0423 10.186 10.3202 23.2679 18.617 22.7929 
15008 5 24.7476 8.17989 10.6591 15.7502 -0.179897 -2.10259 
14899 6 29.4402 9.94521 7.67407 -3.22076 0.0359731 5.3493 
17637 7 24.0129 13.1402 7.48134 1.60872 0.648568 -0.188186 
25427 5 0.471403 16.2254 10.9577 5.83974 -3.87658 -4.25579 
25424 5 3.05777 19.7432 10.2643 -15.0823 -6.34714 -9.81552 
25423 5 0.62854 19.9386 10.7649 3.98767 -4.04637 -10.2611 
25422 4 1.53223 17.8586 9.5283 -9.7525 7.13573 -14.6656 
25421 3 1.35286 20.1653 8.46116 -3.23444 -2.56728 -0.0588524 
25419 2 1.68921 19.4163 9.80763 -40.8374 139.135 65.984 
25358 5 3.0433 15.9649 10.3935 6.09095 -1.3224 -11.7934 
25352 2 1.62447 16.359 9.9389 57.0499 3.01191 39.1829 
25333 1 4.76049 17.9652 10.8964 -6.4172 13.5948 -40.1087 
25357 3 1.27516 15.4524 8.77037 -12.0474 -17.0803 19.1486 
25460 9 1.6173 15.8283 7.87293 0.0943105 0.361915 4.20148 
25349 1 4.58657 14.1062 10.6957 6.5862 16.1927 -15.7533 
22803 5 6.49129 16.0975 10.8756 1.29523 -0.353551 0.708641 
22875 5 6.46084 20.071 11.1158 20.1441 8.01066 8.40347 
25459 9 1.48999 13.6574 8.56205 -1.79591 4.43267 -4.0055 
22801 3 7.03055 16.5942 8.55987 -2.17941 -6.95422 4.419 
2179 7 -0.387305 20.8468 8.22815 14.4222 2.23575 -6.34749 
22805 3 7.32975 19.3599 8.91011 -8.55446 -8.8476 26.179 
22908 9 7.54595 19.9046 8.12021 0.0084904 0.26198 6.53669 
22774 6 7.84223 14.1301 6.46407 2.04062 1.2605 1.79541 
22907 9 7.21638 17.5067 8.66763 -0.102273 20.2864 1.61074 
22800 2 7.69826 20.1918 10.1825 72.337 58.2932 37.6144 
22810 7 9.52718 17.6319 7.67339 -2.04137 0.950576 -1.98349 
22775 6 10.3724 17.5576 8.1234 -18.1105 -9.04209 6.2878 
22811 7 11.0269 17.744 7.42304 6.09634 1.05274 -1.16701 
20249 3 13.6146 20.1923 8.5115 -17.4311 -16.086 19.7686 
22799 2 7.50164 15.6895 9.76752 1.87491 20.7124 70.7746 
20181 4 13.1648 15.598 8.7498 -9.7312 -32.0782 -11.8744 
20250 4 13.59 17.8559 9.69511 -13.7759 6.60637 -27.1546 
20247 2 13.6446 19.4223 9.89672 2.76085 28.4809 66.4533 
20175 2 13.7411 16.3389 9.95052 44.815 117.156 87.0939 
20255 5 12.7826 16.0392 11.1348 -2.49005 -11.6723 -15.7399 
20251 5 12.5994 19.887 10.8751 -0.40381 0.26 8.95589 
22797 1 10.5866 17.8329 10.6706 3.16623 -1.24581 13.8329 
22804 5 8.85928 16.0465 10.2629 -4.61761 -11.0045 -14.2524 
22806 5 9.15709 19.6726 10.6518 26.1879 -12.5989 -11.837 
20209 6 12.874 15.0323 5.7533 0.473143 -0.362023 1.52018 
20174 8 12.7095 14.4625 7.54514 27.5042 10.9288 -53.9855 
22802 4 7.35344 14.1712 9.46207 -20.8944 9.52766 -28.7052 
22707 1 10.7485 14.2517 10.2767 11.8822 10.4467 -12.6138 
20180 3 10.8086 14.0423 7.95232 18.1365 -8.90352 4.88852 
20260 7 13.0324 18.8856 6.99744 0.135865 1.33762 1.28807 
20261 7 12.9162 17.3666 7.33817 -0.501076 10.6321 5.6896 
20401 7 13.4229 15.9899 5.62814 -0.160899 0.31143 -1.28287 
20406 9 10.0189 14.4108 7.4707 -1.25961 2.86361 -2.38688 
20413 7 11.9327 15.1884 5.26927 -0.0684156 -0.0247444 -0.439439 
20222 6 12.7014 18.0477 6.67459 -0.757327 0.709098 -0.999645 
22813 7 7.7456 15.0607 6.62462 -0.0719439 -0.0483453 0.0688192 
22812 7 7.44152 13.8113 7.30537 0.725492 1.4546 6.55272 
17861 7 18.0327 18.1656 5.18632 -0.0414224 -0.0257911 -0.195131 
17849 7 19.1146 19.332 5.5722 -0.0525078 0.152325 -0.563578 
17657 6 18.7692 18.3451 5.88217 -4.88535 -2.65957 15.078 
20252 5 14.9691 19.7344 10.5394 -8.30647 -13.1878 -17.2825 
20182 5 15.2166 16.0409 10.213 -4.15784 -20.8091 -13.9865 
17622 8 18.5634 18.0799 7.75046 32.2514 27.6988 -14.8026 
17854 9 15.9449 18.6012 8.0719 -0.297892 2.02898 -3.23621 
17628 3 16.7563 18.0742 8.25458 4.08208 -9.98021 9.69595 
17624 4 19.3217 16.6826 8.46567 -7.77773 -11.5224 -3.65458 
17629 4 18.9827 19.4332 8.85904 -13.8163 -12.3373 1.3191 
17621 2 19.6951 15.6526 9.54627 46.3733 95.3905 85.3052 
17623 2 19.5501 20.2671 10.0023 53.4062 25.3702 74.2519 
17630 5 21.0316 19.7719 10.2793 12.2337 -2.69686 -15.3741 
17627 5 21.1919 15.89 9.96206 0.963813 -17.7862 -17.5149 
20155 1 16.8424 17.9752 10.6946 1.51656 10.9282 -30.824 
17626 5 18.7672 15.8963 10.7355 -8.59747 -8.77369 -12.109 
20171 1 16.7158 14.1373 10.3208 4.67745 6.0123 -53.3803 
17625 4 19.606 14.0957 9.12525 -6.03997 7.90954 -12.2244 
17564 7 21.4906 17.2833 7.58657 -0.5707 1.54785 -1.24659 
17703 5 18.6795 20.0258 11.2014 -14.8956 -12.2937 -21.295 
17709 7 19.905 20.6273 7.34679 2.92471 4.95748 4.34243 
20259 7 15.568 20.8847 8.4035 12.2165 3.56293 -2.29196 
17526 6 22.4132 17.452 7.70597 -7.61644 -6.65224 18.0408 
17563 7 22.8092 16.6576 7.3521 0.257447 0.351001 -1.95576 
17619 1 22.5682 17.9268 10.3236 11.4138 12.9796 -27.67 
15250 9 25.4259 16.554 7.3496 3.2364 4.20296 70.4116 
15006 3 25.6058 15.7572 7.92658 -17.1971 -12.3678 55.2241 
15072 4 25.3173 20.4252 8.40544 -13.0365 -7.75278 -3.00938 
15073 4 25.9599 17.9542 9.15621 -15.9232 5.89223 -35.6127 
15069 2 25.8295 19.4844 9.52152 47.007 196.093 67.561 
15075 5 27.2671 19.8707 9.91392 5.21278 -3.98122 -14.3901 
15001 2 25.8934 16.4473 9.39988 32.0164 23.0459 35.4436 
15007 5 27.2951 15.9854 9.7832 -0.50606 -10.5461 -15.8744 
14980 1 29.1857 17.8209 10.1444 -12.834 -20.3491 15.1909 
15074 5 24.8028 19.6389 10.6176 -6.07434 -5.26113 -18.9838 
15079 5 24.8396 16.1163 10.4638 8.55658 -3.578 0.489655 
12533 7 25.4571 18.3754 7.23091 -0.33656 4.44353 6.0201 
17532 1 22.9834 14.1035 10.1761 9.82771 12.1577 9.55999 
14998 1 28.6373 13.9834 10.0874 19.8289 24.7146 12.8297 
12492 6 25.1645 17.9196 6.43544 -1.27761 -1.71267 -0.9208 
12532 7 24.2391 17.8074 6.45162 -0.0696862 0.00988809 -0.231721 
17636 7 24.2982 14.6547 7.77674 3.11788 -4.6732 -4.46266 
17597 6 27.3956 19.7327 6.47718 -16.4652 -1.11084 0.766205 
17635 7 27.0344 19.9354 7.31032 6.45878 1.23534 -2.07318 
17596 6 23.5563 13.9987 7.66239 -11.401 -1.58897 4.58523 
14974 6 28.7308 14.0837 7.53935 -5.76303 -11.0064 7.30922 
17634 7 26.9707 18.9124 6.11254 0.290198 0.570172 -0.14852 
15084 7 28.6931 18.2675 6.90767 0.604709 2.77234 -1.46976 
15012 7 28.1952 14.867 7.30744 1.77928 1.80777 -1.73286 
15044 6 29.2899 17.8272 7.55162 -18.4089 -15.3216 14.3743 
15011 7 29.5706 14.1102 6.99075 5.05102 0.885832 -0.263514 
25461 9 1.63963 21.1191 8.56579 -0.422203 9.01354 -6.08493 
25417 1 4.459 21.7465 10.9217 -16.8461 -19.9354 -19.5322 
24923 5 0.754769 27.5218 10.9484 5.83596 1.75125 -3.01458 
25425 3 1.35108 22.98 8.77836 -10.6315 -8.41882 18.821 
24927 5 0.559259 23.61 11.1153 15.483 -1.72275 7.56693 
25426 5 3.10363 23.8017 10.4009 3.45963 -9.57633 -9.38884 
25420 2 1.64879 23.9265 10.0018 35.8618 98.2923 58.3255 
25401 1 4.97038 25.5329 10.7242 12.343 4.83273 9.42737 
24924 5 3.18735 27.1766 10.4054 -6.34453 -6.13352 -14.2918 
24922 4 1.38256 25.4386 9.75254 -16.5024 10.3992 -17.0251 
24919 2 1.7823 26.9563 9.95451 1.49082 144.809 62.1502 
24921 3 1.55556 27.7248 8.56562 -3.28886 -0.962018 8.31308 
25462 9 1.60156 23.3783 7.96981 -0.0547575 0.117351 1.80913 
22871 5 6.64021 23.6959 10.9095 4.9754 -4.87854 -4.83558 
25451 9 2.36751 27.8615 8.13061 0.0529873 0.482875 1.55027 
22375 5 6.78156 27.3777 11.2762 2.00476 -3.89014 -3.16882 
20355 9 13.7553 21.1037 8.67011 -2.65146 21.3282 -1.03132 
22873 3 7.36095 26.8242 8.94079 -1.70351 -2.88499 22.5466 
22910 9 7.83453 27.1872 8.16884 0.0173507 0.303202 5.20353 
22881 7 10.5673 22.2037 7.78641 0.176553 0.148052 -0.603231 
22880 7 12.0072 21.7432 8.22322 12.0815 4.43666 -4.65603 
22869 3 7.56442 24.0265 8.5961 -0.863489 -1.28588 0.761378 
22842 6 11.0399 21.8185 8.50693 -11.6443 -8.58783 3.07204 
22909 9 7.42422 24.9915 8.72358 -0.296401 9.49147 -0.657499 
22870 4 7.80675 21.6814 9.76784 -9.94151 13.0255 -14.6028 
22781 1 10.8959 21.6885 11.0129 -25.5241 -19.4553 27.2852 
22868 2 7.76545 27.7412 10.1816 37.9517 97.7225 40.1723 
22867 2 7.78902 23.2324 9.92461 53.8338 189.903 71.9735 
22381 7 12.0152 26.341 8.4485 11.0641 9.22429 -1.41077 
20253 3 13.4682 23.4016 8.82795 -29.2147 -27.6547 8.21137 
22380 7 10.8121 26.2531 7.54966 0.0747599 0.1072 0.0985637 
22342 6 11.2091 25.8188 8.3988 -19.457 -2.79581 29.8823 
20317 3 13.3219 27.8427 9.08682 -10.2716 -13.1901 -8.51861 
20248 2 13.7696 24.0294 10.2263 8.51105 4.65322 108.096 
20318 4 13.624 25.5447 10.0164 -29.2715 -18.846 -43.1131 
20315 2 13.7788 27.0543 10.3348 51.8364 -14.9773 83.5431 
22865 1 10.6865 25.3992 10.9226 12.2833 11.0374 22.418 
22872 5 9.17462 23.6871 10.462 5.30788 -15.6871 -14.1647 
22874 5 9.24947 27.6706 10.5948 6.70412 -9.65156 -10.2079 
20356 9 12.5954 23.6209 8.49206 10.2619 3.83447 -10.1639 
25431 7 14.1509 26.52 7.83751 1.06428 4.74844 6.68367 
20323 5 12.8525 23.6161 11.429 2.09819 -8.33902 1.03688 
25430 7 14.093 24.9955 7.86813 1.66666 4.73103 10.2768 
25395 6 14.4016 25.7329 7.27378 -0.138694 0.0906883 -0.154477 
20258 7 15.2294 22.3163 8.12146 1.36159 0.130337 -1.4291 
20223 6 16.0015 21.7513 8.2238 -7.34051 -1.26058 8.9896 
20245 1 16.5342 21.695 10.8038 16.3521 20.4447 20.11 
17698 4 19.4354 21.7483 9.56107 -12.0394 -3.69504 -28.2636 
20320 5 15.2214 27.4242 10.856 4.38404 -11.1739 -15.4091 
20254 5 15.1801 23.5949 10.561 -15.9803 -11.7077 -19.8506 
20329 7 17.2434 26.6466 8.28058 4.00338 3.2052 -3.64085 
20328 7 16.0419 25.8023 7.61998 1.70505 -0.0159496 -0.0948661 
17803 9 18.6355 24.4714 8.19816 9.14654 9.21807 -0.571458 
20290 6 16.6573 25.8385 8.42977 -27.1609 -4.72168 8.28804 
17697 3 19.4666 23.9299 8.24968 -7.45219 -15.4852 7.01817 
17701 3 18.7572 27.5768 9.07536 -11.3594 -29.6266 -4.03689 
17695 2 19.6311 23.298 9.64847 1.55308 4.875 77.5939 
17696 2 19.6976 27.9701 10.2409 34.1363 100.801 94.0576 
17700 5 20.9899 23.6351 10.1729 -17.4821 -7.47401 -18.9163 
17702 5 21.0953 27.3466 10.1236 7.73171 -13.6365 -21.4796 
17699 5 18.7076 23.7838 10.7613 -2.86704 -4.06301 -0.0223617 
20229 1 17.0048 25.6018 10.9426 18.5451 15.0658 -15.2624 
17708 7 20.0702 22.1005 7.0657 -0.239166 1.41086 0.822882 
17670 6 20.1319 21.2549 6.64674 -0.741565 0.838648 -1.2946 
17707 7 20.7868 25.2363 7.6314 4.6826 4.91516 -0.048229 
17706 7 21.1787 26.5559 8.43819 0.157534 6.49728 6.89033 
17671 6 21.5933 25.7538 7.94146 -0.474348 -4.78854 5.28564 
17804 9 18.1596 28.2261 8.79174 4.29932 -0.34174 -2.93328 
15302 9 22.12 22.0167 7.2663 -10.7723 2.29767 -0.655932 
15082 7 28.9341 21.4367 6.98265 -0.115671 1.91786 -3.02422 
15309 7 26.1711 21.1856 5.56242 -0.0513069 0.354441 -0.580286 
15297 7 25.7773 22.9358 5.36905 0.0247203 0.422175 0.0410494 
15076 3 22.8653 21.7306 7.945 5.19388 -10.2781 6.86574 
15105 6 25.4296 21.9972 5.7434 2.5159 2.78207 8.69864 
15067 1 28.5009 21.8246 10.3102 7.15708 13.7068 38.607 
17603 1 22.8719 21.8054 10.3091 42.1835 31.171 65.0777 
15070 8 24.6898 21.8654 7.53391 8.5933 22.0991 -5.24472 
15157 7 24.761 24.7113 6.5409 0.0985089 1.42264 -2.21764 
17693 1 22.4585 25.6458 10.3024 35.6006 47.1192 36.2992 
15118 6 24.3516 25.0692 5.80024 0.215542 -0.0163043 -0.0799615 
15156 7 23.4675 25.4068 6.08223 0.348379 0.0656608 -0.0162064 
12750 9 28.7793 27.0604 8.02173 -18.1442 -1.2981 -3.48695 
15145 3 25.8709 28.1424 8.32624 -25.0143 -10.1587 23.8688 
15077 4 25.2347 23.1977 8.50469 -14.7425 -21.8982 -11.6289 
15146 4 25.5466 25.6818 9.29943 -7.66731 17.7156 -15.5968 
15143 2 25.8227 27.2278 9.63665 33.835 57.7392 41.7144 
15071 2 25.6377 24.1622 9.58877 42.2497 138.049 70.2397 
15078 5 27.0823 23.775 9.8664 3.24828 -1.71387 -12.3885 
15148 5 27.2019 27.5255 10.2775 11.2674 -13.215 -15.5864 
15051 1 28.9278 25.6837 10.4438 0.39886 13.1436 49.0843 
15147 5 24.7278 27.7419 10.5663 3.90324 -1.93774 -8.10097 
12524 3 29.1596 26.0649 8.01414 -11.3235 -1.29762 8.91446 
15045 6 29.2043 21.7754 7.82857 -18.5361 -11.044 5.14116 
15251 9 25.5134 27.6474 7.63837 -0.0851998 -0.289063 15.5467 
15151 5 24.6677 23.8201 10.7274 -4.89054 -8.22215 -16.3806 
25272 7 0.525976 4.53996 16.2307 3.00597 1.05557 2.67153 
25198 5 4.5419 2.55475 12.6561 -17.8047 -10.6767 -11.1782 
25195 5 4.3158 -1.09258 12.7632 -1.25264 -3.70965 4.1392 
25511 9 -0.0591522 1.20445 16.2508 -13.1983 3.91353 -1.34106 
22635 1 6.05896 0.692999 12.8525 -43.9415 -17.7751 -13.0683 
25268 5 2.06322 2.89899 12.9931 -1.81983 -12.7602 -22.9786 
25258 1 0.250924 4.4912 12.7638 -3.85811 -5.10393 4.8253 
25207 1 0.476342 0.786529 13.0733 10.9254 37.9982 36.1284 
25191 2 3.47612 3.03985 13.5769 24.1021 -21.3363 59.7854 
25263 4 3.57926 4.53329 13.9916 -29.333 -3.68728 -41.8902 
25197 4 3.26023 2.0922 14.7531 -14.4819 -27.7333 -13.7072 
25192 4 3.04502 -0.482259 14.848 -6.41756 -15.9732 -4.54895 
25196 3 0.637514 0.969864 15.5555 11.8197 -14.9277 24.2588 
25190 8 2.51633 0.877689 15.8488 -15.9655 8.68935 -34.5358 
25240 6 3.63399 1.1698 17.3854 -14.1166 -3.20825 -6.99809 
25519 7 3.52357 0.655588 18.2862 -2.54154 4.29675 -16.5092 
25507 7 3.66738 2.22453 17.741 -0.672377 7.00056 -13.6642 
25308 6 0.131979 4.51597 15.3416 -30.5328 -11.3854 7.65027 
25270 6 1.7118 4.64206 17.8135 -11.5018 -6.19387 -17.527 
25310 7 1.95071 5.25586 18.519 -4.54214 12.1266 0.919214 
22655 1 6.37544 4.67075 12.8239 -22.7257 4.90492 -7.57288 
25194 5 1.89442 -1.62182 13.1754 -0.689565 -13.7599 -18.5041 
25189 2 3.31878 -1.5892 13.8009 44.7609 168.2 91.8825 
25309 7 2.61738 4.49718 17.306 34.3833 -2.67249 2.45267 
22683 6 6.0977 0.726804 15.3893 -11.1379 -8.66773 -1.86789 
22644 3 6.92671 4.70816 15.2077 6.0286 -18.3622 5.34663 
25472 9 1.81919 3.29412 18.7368 11.1455 18.369 88.2745 
22651 7 5.24675 0.330648 15.6995 3.68548 2.16188 -3.43529 
22650 7 6.37917 1.36541 16.0785 1.57233 8.42774 3.87804 
22759 7 4.90877 5.10573 18.2165 4.1742 1.76012 6.4656 
22959 9 6.19607 4.40291 15.8679 -28.4661 6.26988 -2.75113 
22649 6 4.12602 4.24434 16.6205 -37.4174 10.7396 -50.5979 
22684 7 3.81014 3.33608 16.1899 5.61594 24.6055 7.90923 
22685 7 4.03145 4.8369 15.9074 -2.12099 -4.14839 -26.5731 
20062 7 6.11014 3.55374 17.8461 1.65923 9.54118 4.15562 
25201 6 0.28965 0.564463 18.9219 -15.4447 -7.18487 0.19588 
22687 7 5.31052 0.125276 18.3439 2.21558 3.67154 -11.6508 
25237 7 0.979969 1.27333 18.8427 10.3252 8.73362 -2.68557 
25312 7 -0.276298 4.99259 18.6112 2.38942 0.960631 -1.27994 
25236 7 0.792475 -0.261832 18.8936 4.73798 0.014604 0.0675251 
22717 6 5.49009 5.15196 19.0264 -11.2136 -16.1997 -0.163535 
20023 6 6.57412 2.85882 17.3069 -19.8989 -10.011 -25.4479 
25231 3 2.32187 2.567 19.3026 -16.4568 -35.3162 26.9877 
22648 6 5.61945 -0.0234488 19.2136 -18.0879 -11.8164 -8.07772 
20131 6 11.9206 4.84992 19.1399 -17.1518 -21.8794 9.38573 
20061 7 7.38812 2.70439 17.7736 -1.85979 -1.87541 -0.481935 
20022 6 13.2645 -0.565503 16.8753 -13.5497 -9.98139 6.00584 
20101 7 8.31832 0.543585 16.933 -3.84642 -2.69661 -2.94326 
22931 9 9.86191 -0.622132 15.6934 -7.63843 4.14626 -178.887 
22643 5 10.3472 2.57234 12.1955 -2.98969 -6.44503 -10.5275 
20083 1 12.0539 4.57824 12.2941 20.4168 12.3541 24.4212 
22642 5 7.78438 2.32799 12.6693 -1.10955 -8.30993 -19.9712 
22572 5 10.3915 -1.19034 12.4814 -5.68634 -9.44147 -15.959 
22647 5 8.01803 -1.15376 13.3887 1.84349 -16.9841 -18.9606 
20029 1 12.4935 0.818447 12.5759 -16.3548 5.89916 -2.64537 
20095 5 13.8672 2.81253 13.0198 -5.98077 -10.8888 -14.4243 
22637 2 9.23854 2.21284 13.1776 46.2622 -187.742 68.4428 
22565 2 9.47766 -0.798971 13.6553 34.9883 51.3006 57.1879 
22641 4 9.6135 0.790931 13.697 -33.063 -43.6503 -35.1914 
22640 4 9.10375 3.21619 14.2882 -12.9659 -33.4387 -19.4034 
20060 6 11.9654 1.26685 15.1496 -14.8134 -7.82922 14.6691 
20025 7 11.0067 1.12631 15.0553 -3.43481 -0.327029 -11.0629 
22638 8 8.79527 4.47442 15.4229 -32.8912 -9.21213 -100.243 
20024 7 12.2274 0.699269 15.8945 5.35169 7.9207 -1.50956 
22688 6 9.57951 4.35959 17.1601 -13.5268 -9.51063 -3.51777 
20130 6 9.11959 0.111101 17.1513 -9.4701 -18.1701 -12.699 
20016 5 13.8732 -1.10957 13.0216 3.13893 -13.7824 -19.6115 
20100 7 8.82749 -0.44493 17.8826 -3.21874 3.42156 7.51813 
22967 7 9.24464 4.98394 17.9338 -3.63936 -5.57689 -56.3941 
22571 3 10.0226 -1.2974 14.9975 -32.6896 -32.494 -43.6729 
20135 7 12.0143 0.643933 18.0577 5.35966 3.65058 3.47584 
20134 7 10.4542 0.537979 18.3873 14.1451 1.85423 -0.663156 
22955 7 9.57993 3.37033 17.6065 -1.80455 -2.02536 -28.5962 
20063 7 13.2356 -1.17892 17.6176 1.91994 4.34049 -1.52303 
20098 7 11.4905 4.76588 18.2858 0.80208 1.14687 -2.27769 
20096 6 11.3362 0.786217 18.7975 -10.8724 -7.52223 4.63592 
20379 9 14.2313 2.03615 15.3276 5.71899 4.51752 4.25702 
20099 7 12.8081 5.0532 18.8023 1.71405 3.16164 -1.53622 
20064 7 13.9286 -0.933046 16.2603 1.5427 1.61859 -6.60672 
22920 9 7.66158 5.40209 19.4852 14.3612 21.2167 18.4399 
17474 7 17.0418 -1.61437 15.7333 4.81795 5.26194 -4.3553 
20366 9 14.9733 3.38235 18.9043 3.55845 2.20554 38.6928 
20378 9 15.4007 0.0444891 14.8487 2.14515 66.1254 26.9711 
20012 2 15.2359 -1.61828 13.5115 15.9772 -69.7995 66.0891 
17469 5 19.9364 -1.30131 13.4326 2.87209 -11.0855 -13.737 
20017 5 16.2815 -1.21496 12.5395 8.29073 -1.03445 -6.77354 
20020 5 16.2894 2.4578 12.6312 -4.89321 -5.15898 -8.04113 
17477 1 18.4308 4.50707 12.7514 51.2543 44.459 56.8424 
17458 1 18.218 0.637135 12.871 44.6437 34.3063 6.56917 
17464 5 19.9587 2.61017 13.0923 -3.28489 -11.9182 -14.372 
20014 3 15.3481 -0.927596 14.9324 -35.3196 -12.7507 35.71 
20013 2 15.2355 2.86552 13.6686 22.3114 -19.4111 68.4152 
20089 4 15.4847 4.41259 13.8828 -11.4556 5.52541 -18.404 
17460 2 21.2934 2.30374 13.8302 65.2632 143.773 99.3873 
17386 2 21.2555 -0.760946 14.0881 53.6822 131.576 18.2956 
20019 3 15.127 2.00817 15.0027 -14.2706 -6.63089 18.7701 
17466 6 17.8983 0.914537 15.2939 -26.3562 -14.1509 -2.14467 
17494 7 17.0037 1.20363 15.4996 9.55359 4.59485 -4.58576 
17493 7 18.3888 1.49909 15.9098 0.557048 5.62547 -4.88912 
17471 6 18.6569 2.87693 17.3835 -24.9799 -24.1433 -31.4011 
17510 7 19.4407 2.96041 17.9673 4.18458 -0.734411 0.186108 
17509 7 18.2629 2.01443 17.5601 2.87246 1.77019 -5.39478 
17463 4 21.2166 0.803669 14.1626 -16.7705 10.1271 -28.9026 
17508 6 18.4853 4.84878 15.312 -13.1335 -17.0097 11.284 
14959 7 21.1143 0.881749 18.2496 -2.34867 2.51725 -5.01574 
14960 7 21.0429 1.03388 16.7516 -1.9219 7.23429 0.635931 
17391 3 21.3819 -1.52181 15.4074 -10.9539 -20.4255 11.7602 
17825 9 21.4537 -0.881617 16.1699 0.0332507 6.14376 71.0994 
17462 3 21.4014 2.92115 15.2487 -19.6488 -22.2815 11.3191 
14918 6 21.2113 0.380789 17.4521 1.96778 -12.3726 -0.612079 
17826 9 21.7156 3.85477 15.1642 4.5573 39.689 2.82899 
17544 6 17.5465 4.73106 19.0253 -28.3379 -17.0372 7.10365 
17582 7 17.9323 4.13797 18.25 5.83002 13.7067 6.55288 
17472 7 19.4078 5.13619 15.5496 12.5476 2.80998 -4.11115 
17499 3 20.7196 2.52521 19.3611 -18.0771 -8.52856 -20.3959 
17473 7 18.3465 4.12554 15.9623 2.42291 5.16814 0.217068 
25471 9 3.34525 -1.82824 18.8607 8.75566 5.26312 -12.238 
17813 9 21.0568 3.47549 19.4766 3.4624 21.6012 -16.5907 
20367 9 15.605 6.07112 19.0006 8.38565 5.40025 -30.0278 
17457 7 16.1351 -0.0390235 19.1536 5.20914 -10.9344 -4.53965 
17456 7 16.3394 1.40896 18.9091 2.65167 -14.9259 -6.47644 
17503 6 16.886 0.645739 19.1692 -15.6964 -10.5853 0.424437 