ITEM: TIMESTEP
240000
ITEM: NUMBER OF ATOMS
25517
ITEM: BOX BOUNDS pp pp ff
-3.8959205201285124e-01 6.0088135642019459e+01
-1.9452389155355383e+00 5.9115524189537531e+01
-1.2206056431032383e+01 1.1390111600702880e+02
ITEM: ATOMS id type x y z v_stressx v_stressy v_stressz 
25292 7 5.89857 3.03966 7.5916 -2.39952 -8.51433 -6.25052 
25293 7 5.98077 1.53035 7.7064 -1.87098 -5.88489 -1.93053 
25252 6 5.35811 2.25094 7.51796 -6.38003 -3.24797 0.233812 
25287 5 0.61597 0.755495 10.7564 7.55738 -1.66643 3.85965 
25283 5 2.94291 4.2301 9.842 11.0493 6.60479 -12.8977 
25281 4 1.3887 2.44216 9.07367 -13.1543 1.88926 -16.5347 
25280 4 1.07853 5.00258 8.46007 -12.7886 -8.53795 -6.57845 
25277 2 1.45655 3.94107 9.49571 52.3043 37.1972 79.5475 
25215 5 2.99957 0.588718 9.72621 -14.7717 -10.2148 -11.7829 
25209 2 1.59287 0.935181 9.44522 8.11069 -56.8864 73.5237 
25188 1 4.8243 2.58953 9.97468 5.28651 1.70777 14.2213 
25214 3 0.796635 0.0137284 8.44439 -2.13748 -4.54822 2.22167 
25282 5 0.520916 4.37471 10.6565 -15.487 -14.4477 -18.5095 
25458 9 1.40812 -0.435335 7.83607 0.0237759 2.06926 1.68538 
25206 1 4.52732 -1.17961 10.115 34.6375 37.8806 20.0147 
22660 5 6.52822 0.875659 10.2203 -0.896365 -5.74569 -16.7108 
22735 5 6.623 4.87348 10.5536 2.52895 -9.06763 -15.027 
25505 7 1.83983 5.65447 5.50835 -0.0552165 -0.158329 -0.294822 
22662 3 7.17647 4.29529 8.22411 -12.3341 -23.1536 -18.2517 
22658 3 7.30314 0.346889 7.89736 -15.0569 -15.3712 -11.3284 
22905 9 7.65252 -0.485879 7.46068 0.0235054 -0.41042 -4.48706 
22906 9 7.50322 4.57024 7.35908 -2.70191 4.35059 9.70622 
20115 7 11.1372 2.292 6.49758 0.44723 -0.00599379 -1.1546 
22656 2 7.7059 0.365729 9.40584 22.647 74.6147 62.0293 
20116 7 12.1136 2.88755 7.40659 19.7379 6.67588 2.74471 
20078 6 11.1398 2.86581 7.23657 -16.0038 -11.6192 1.6688 
20106 3 13.741 4.72985 7.46261 -15.8797 -11.0452 42.0109 
22657 2 7.60419 5.1024 9.41016 55.1366 -15.958 22.8631 
20036 3 13.619 0.47741 7.57109 -16.7844 -19.647 16.5602 
20107 4 13.6664 2.6833 8.8298 -18.0423 -13.9158 -33.9607 
20104 2 13.8784 4.18168 8.97251 31.831 36.2072 94.1107 
20031 2 13.7132 1.1448 8.96008 62.906 164.455 16.2177 
20108 5 12.6966 4.70757 9.81807 14.8019 11.9895 1.77115 
20112 5 12.4932 0.846951 9.91178 11.2211 -0.422229 5.2306 
22654 1 10.4859 2.78478 9.68506 11.4991 10.451 11.5093 
22661 5 9.03983 1.11007 9.56315 -7.71078 -6.60772 -16.4003 
22663 5 9.10858 4.7108 9.73761 4.20906 -12.725 -15.3107 
22563 1 10.886 -1.13469 10.1589 -0.924121 -0.502 -22.7571 
22659 4 7.7627 -1.12896 9.68153 -9.48945 -34.6742 -34.6157 
22629 6 11.3751 -1.065 7.76545 -16.8412 4.97081 2.3559 
22669 7 11.9249 -0.207968 7.44815 1.31667 5.22754 -1.26961 
20352 9 13.8605 1.22514 6.87465 0.750131 12.5415 14.625 
20189 7 14.2777 3.18994 6.51456 0.312371 13.5369 8.40969 
20353 9 14.543 5.23857 7.22704 7.76401 13.213 16.8474 
20148 6 14.5671 2.45013 5.87332 0.143716 0.0562421 0.0983455 
22740 7 11.2703 5.5881 6.8279 3.28824 1.48989 -1.16938 
22738 7 8.76742 5.41578 5.90114 -0.686944 0.707427 -1.34506 
22701 6 7.85394 5.37142 5.69312 0.461651 -0.337435 7.85208 
22739 7 7.886 4.86164 4.87022 -0.0110421 0.0203413 0.00871633 
22670 7 11.9327 -1.89861 7.72342 1.06593 1.67584 -5.20034 
20188 7 15.4435 2.20345 6.22553 0.815051 -0.132587 0.0767676 
20037 5 15.0057 0.565552 9.66218 -1.08534 -7.03887 -13.1914 
20118 7 17.8719 2.63796 7.70159 5.6464 -0.327583 -3.01033 
20117 7 17.6995 1.17882 7.44002 2.99742 2.56169 -4.79869 
17799 9 19.455 -0.241526 7.33338 0.324226 6.61709 17.9008 
20077 6 17.1284 2.01775 7.60787 -23.0961 2.34199 27.0934 
17484 3 19.536 4.02271 8.03155 -4.20329 -2.53917 -2.17461 
20109 5 15.1822 4.68195 9.53593 -5.87314 -7.2577 -16.8918 
17480 3 19.3808 0.510653 7.95906 -16.3923 -31.9489 11.6081 
17478 2 19.7385 0.13463 9.405 32.618 34.9302 49.8914 
17479 2 19.7269 4.90401 9.32133 47.0054 112.928 59.9723 
17485 5 21.0972 4.45706 9.83859 4.92289 -15.9972 -16.4914 
17483 5 21.125 0.57616 9.92672 5.14333 -10.0285 -13.3002 
17482 5 18.7273 0.612358 10.4453 0.816138 -3.73792 -6.33542 
17560 5 18.5746 4.39351 10.2378 -1.11049 1.65231 -10.6975 
20011 1 16.7883 2.43064 10.1919 50.5488 45.841 47.2225 
20028 1 16.5417 -1.33752 10.1131 24.1 17.2599 10.382 
17481 4 19.613 -1.37684 9.30614 -12.3902 -19.5672 -38.3413 
17800 9 20.2785 3.41394 7.96437 0.31492 -2.89651 -5.50955 
20002 6 16.2002 -1.21507 7.53432 -10.3433 -7.58727 13.858 
20044 7 15.5857 -0.449442 7.68688 4.33578 8.62095 -2.9314 
20043 7 16.3516 -1.12082 6.60323 0.281251 0.20134 -0.850145 
17377 6 19.8786 -1.6773 6.3322 0.246592 -0.138779 -0.0156848 
17415 7 20.5742 -1.92657 6.98281 2.87619 2.48391 2.09918 
14864 7 23.6314 3.83266 7.75133 5.59476 -4.68939 -1.43743 
14825 6 23.2988 2.969 7.82153 -9.31855 -3.85133 1.29542 
14863 7 24.1611 2.53617 7.90018 3.87525 -1.30244 -0.522881 
17476 1 22.5994 2.5974 10.2549 -65.5061 -40.9607 44.6319 
14928 3 25.5679 4.59148 8.20809 -31.4456 -50.0128 -46.7548 
15246 9 24.7065 0.00657495 8.04332 7.96541 10.7998 20.0743 
14856 3 25.5405 0.383335 8.16649 -12.5585 -14.8314 10.7787 
14929 4 25.6618 2.47021 9.27814 -17.8178 -35.0599 -33.9138 
14851 2 25.7726 0.935136 9.6021 19.7747 -188.653 74.9529 
14926 2 25.8313 3.99121 9.61155 28.6142 146.048 88.6894 
14857 5 27.172 0.513951 10.0212 -9.74801 -12.1493 -20.6113 
14931 5 27.2703 4.30837 10.1061 -28.229 -11.449 -17.4977 
14832 1 28.9014 2.41808 10.4207 14.5974 12.0033 44.9585 
14930 5 24.8007 4.37565 10.6576 12.5655 -4.50168 -12.7041 
14934 5 24.7275 0.511689 10.6576 4.58269 -3.98491 -0.160976 
17384 1 22.8636 -1.16741 10.5973 -1.20663 4.2277 -11.5854 
14848 1 28.7231 -1.43222 10.2624 15.0174 18.8837 -2.38823 
14898 6 29.1786 2.45721 7.88738 -13.748 -15.3884 6.06118 
15247 9 26.3681 4.66526 7.72718 -1.61248 -1.09353 -15.3019 
14826 6 28.1456 -1.3901 7.71182 1.25114 -3.46174 26.4523 
14861 7 27.5228 -0.59177 7.7367 5.00507 5.85188 -2.25544 
14862 7 28.7608 -1.17174 6.9734 0.155174 0.0374932 -0.0608185 
17565 7 23.8543 5.62398 7.62904 12.5201 3.72825 -1.59753 
17491 7 23.3409 -0.830267 7.25909 0.0967826 0.0709489 -0.441488 
12347 6 29.4782 5.3719 8.00631 -15.2668 -7.18064 4.18167 
14939 7 29.2544 3.33895 7.63004 0.450982 -0.924711 -1.19649 
17492 7 24.1978 -1.77871 8.08715 8.18362 2.4555 -6.23526 
17450 6 23.2929 -1.42611 8.02021 -21.528 -6.95802 18.9503 
25291 7 5.22591 6.53661 7.32751 1.20617 1.69226 -3.12676 
25290 7 3.82687 6.55555 6.86919 -0.67704 1.69634 -4.38496 
25253 6 4.33607 6.71227 7.63615 -9.68268 -11.8176 1.9088 
25517 7 1.84279 7.29014 5.50902 -0.0255968 -0.051082 -0.551954 
25313 6 1.21101 6.45671 5.78137 6.05185 -5.60907 30.2433 
25362 7 1.19888 10.608 6.31952 -0.0136266 0.00360393 -0.0268886 
25275 1 4.36027 6.50413 10.1833 4.22529 12.8947 7.98867 
25278 8 0.639374 6.49188 7.63496 52.953 32.4696 9.65568 
22958 9 3.89074 10.3239 7.2783 -3.4522 1.52433 0.250131 
22732 3 4.70032 10.3548 7.96195 2.3319 -12.6758 13.8712 
25359 5 0.701437 8.49354 11.0939 -9.87191 -10.3312 -17.0774 
25356 5 3.08021 12.146 10.2169 9.67515 -0.136003 -13.2771 
25355 5 0.535314 12.2845 10.6518 -2.70618 -5.62615 -8.98704 
25354 4 1.48185 10.2856 9.54639 -13.7148 13.6536 -27.2436 
25353 3 1.39194 12.6945 8.41831 -14.1361 -9.3709 2.39747 
25351 2 1.63225 11.8296 9.72046 39.4949 48.4445 67.9955 
25286 5 2.93236 8.28049 10.0288 -5.60229 -16.033 -19.0936 
25285 4 0.892127 7.85648 8.74192 -20.8356 -18.7459 -4.72501 
25279 2 1.49492 8.71367 9.83417 16.3725 97.7631 77.8267 
25259 1 4.86194 10.2149 10.3927 6.88667 9.36973 43.1748 
25327 6 1.60703 9.7444 6.34125 2.31761 1.15879 -0.744923 
25363 7 1.38635 9.50649 7.2315 0.508087 2.92513 1.41099 
22807 5 6.5607 12.2849 10.8694 -15.464 -14.4469 -18.1153 
22730 5 6.65234 8.34528 10.5398 -4.56228 -14.7254 -13.2494 
22726 8 6.48614 10.4372 7.49213 -1.44453 17.9337 -26.5568 
22761 6 7.05704 10.8316 5.66761 1.72605 2.49391 6.80774 
22733 4 6.9844 11.7221 8.61372 -10.9295 -12.6856 -2.26891 
22728 4 7.23016 9.05362 8.29312 -12.9248 -20.2898 -5.50042 
22953 7 7.91026 10.1976 5.3838 -0.0660803 0.100622 -0.651158 
22965 7 7.33207 11.8331 5.45166 -0.0473835 0.142082 -0.275776 
22741 7 11.5 7.01103 7.05421 2.60765 -0.0237566 -1.54494 
22700 6 10.8104 6.36788 7.23855 -16.115 -2.20082 18.392 
22636 1 10.9188 6.69179 9.82281 4.03531 9.02069 12.0384 
22729 4 7.48133 6.61374 9.11192 -11.3738 -8.56125 -27.5246 
22668 7 10.5831 8.59932 7.42923 1.91956 4.37257 -3.16909 
22725 2 7.70374 8.13304 9.39568 27.473 31.8529 96.4161 
22727 2 7.53968 12.6129 9.75953 17.0461 132.622 80.9058 
22630 6 10.7174 9.56513 7.55044 -8.22986 0.708108 5.33177 
22667 7 11.6785 9.56 7.58776 1.27353 0.734081 -1.33468 
20110 3 13.3722 8.00482 7.87861 -11.0041 -1.21373 -3.89895 
20176 4 13.3404 12.979 8.33811 -6.60241 -6.96504 -4.17327 
20177 4 13.5478 10.5013 8.95979 -6.28935 -0.374751 -16.3951 
20173 2 13.7057 11.9908 9.40771 33.8213 -4.75928 78.3432 
20105 2 13.7244 8.93675 9.12343 -2.1382 7.06074 84.831 
20178 5 12.5598 12.2564 10.4158 -7.73434 -12.5079 -22.6679 
20183 5 12.8988 8.51128 10.3587 -3.66901 -11.2179 -6.75057 
22734 5 8.97942 12.4092 10.1072 -12.517 -12.4883 -17.7003 
22723 1 10.5486 10.4168 9.97488 -3.05517 4.20444 10.0933 
22731 5 9.11607 8.33188 9.85191 -15.6183 -24.3623 -22.0854 
20354 9 13.8366 7.1662 8.02076 -1.1193 -12.2644 -25.3377 
17489 7 15.3685 7.53149 7.27379 -6.20705 -2.26133 -3.769 
17490 7 16.4114 7.08597 6.51817 -0.225115 0.0341155 -0.311514 
17451 6 15.9423 6.78743 7.29642 -18.7585 -17.279 17.4237 
17555 4 19.5148 6.40419 9.24816 -10.8853 2.35135 -18.6102 
20102 1 16.4765 6.46221 9.86905 10.9817 0.284618 18.3574 
20179 5 15.0791 12.3713 9.86379 2.61003 3.69795 -11.6003 
20111 5 15.0953 8.51182 9.52882 -26.393 -13.9647 -14.9173 
17802 9 19.4832 11.878 7.51898 -0.107828 -0.0973516 0.173202 
17554 3 19.6317 8.68088 7.9737 -1.89038 -5.35623 6.10579 
17801 9 19.3812 9.57046 8.10065 0.648136 12.2127 6.43314 
17558 3 19.3121 11.5602 8.35726 -4.15067 -2.07609 -0.673723 
17552 2 19.7279 7.97853 9.40881 25.3775 58.2471 61.1024 
17553 2 19.7446 12.5897 9.5152 43.0865 43.0607 68.7364 
17559 5 21.2085 12.1329 9.83297 6.75102 -0.520427 -10.7081 
17557 5 21.1128 8.33065 9.93016 0.908322 -11.6217 -15.8179 
17556 5 18.49 8.44005 10.194 12.4627 -3.93378 -7.8025 
17631 5 18.754 12.2185 10.6826 2.05455 -5.4771 -4.2859 
20084 1 16.8199 10.2664 10.3615 -10.8992 -3.86522 -0.95576 
17566 7 22.7737 6.49197 7.09029 0.0941227 0.0177665 0.0504458 
17525 6 23.2369 6.30614 7.97014 -29.9212 -5.88147 17.2738 
15249 9 26.4199 12.3989 7.50271 0.846587 0.689472 0.273632 
14924 1 28.8784 6.30371 10.2599 25.0437 20.2019 7.49612 
17459 1 22.8153 6.36449 10.4136 -83.6519 -67.8865 27.787 
17550 1 22.6813 10.1773 10.109 18.975 17.6676 8.05496 
15248 9 25.0074 7.30471 8.25379 6.72978 8.86549 8.75407 
15002 3 25.5553 12.1132 7.86039 -4.8706 -8.8639 8.57156 
14932 3 25.8534 7.69566 8.37038 -4.66028 -4.20076 1.31983 
15003 4 25.6929 10.0578 9.40228 -9.01424 -5.85826 -23.3267 
15000 2 25.8234 11.5586 9.33827 29.5724 103.161 73.5486 
14927 2 25.9265 8.52626 9.67582 39.5923 67.0718 72.3292 
15005 5 27.2586 12.0307 9.65026 -1.66193 -12.6745 -16.8625 
14933 5 27.3368 8.19806 10.2714 9.44493 -14.0619 -17.3401 
15004 5 24.794 12.1885 10.2281 0.982225 2.98069 -12.5602 
14907 1 29.0423 10.186 10.3202 23.5141 18.3365 21.2798 
15008 5 24.7476 8.17989 10.6591 15.6816 -0.537494 -2.13725 
14899 6 29.4402 9.94521 7.67407 -3.24278 0.0238091 5.29874 
17637 7 24.0129 13.1402 7.48134 1.61063 0.647753 -0.171753 
25427 5 0.471403 16.2254 10.9577 6.11328 -3.47552 -4.49142 
25424 5 3.05777 19.7432 10.2643 -14.908 -6.30165 -9.73913 
25423 5 0.62854 19.9386 10.7649 4.11284 -4.36315 -9.56807 
25422 4 1.53223 17.8586 9.5283 -9.6204 7.06805 -14.5892 
25421 3 1.35286 20.1653 8.46116 -3.2264 -2.59211 -0.159771 
25419 2 1.68921 19.4163 9.80763 -41.9847 140.084 66.1592 
25358 5 3.0433 15.9649 10.3935 6.13046 -1.06213 -11.5575 
25352 2 1.62447 16.359 9.9389 56.4084 1.6541 37.6901 
25333 1 4.76049 17.9652 10.8964 -5.44809 13.3638 -22.2879 
25357 3 1.27516 15.4524 8.77037 -12.1722 -16.6801 18.4341 
25460 9 1.6173 15.8283 7.87293 0.10281 0.365805 4.19019 
25349 1 4.58657 14.1062 10.6957 6.14724 15.9859 -30.1378 
22803 5 6.49129 16.0975 10.8756 1.45179 -0.544297 0.366723 
22875 5 6.46084 20.071 11.1158 19.879 8.07192 13.1302 
25459 9 1.48999 13.6574 8.56205 -1.74544 4.07337 -3.93029 
22801 3 7.03055 16.5942 8.55987 -2.25903 -7.01134 4.17805 
2179 7 -0.387305 20.8468 8.22815 14.3998 2.24009 -6.3413 
22805 3 7.32975 19.3599 8.91011 -8.64258 -8.59425 25.8247 
22908 9 7.54595 19.9046 8.12021 0.0108909 0.257836 6.54069 
22774 6 7.84223 14.1301 6.46407 2.00586 1.25355 1.96544 
22907 9 7.21638 17.5067 8.66763 -0.0437485 20.3077 1.77276 
22800 2 7.69826 20.1918 10.1825 71.7659 57.5906 38.5884 
22810 7 9.52718 17.6319 7.67339 -2.04187 0.95656 -2.01156 
22775 6 10.3724 17.5576 8.1234 -18.0292 -9.11108 6.51966 
22811 7 11.0269 17.744 7.42304 6.0923 1.06905 -1.2197 
20249 3 13.6146 20.1923 8.5115 -17.6354 -15.9163 20.1239 
22799 2 7.50164 15.6895 9.76752 1.64825 21.5283 72.1606 
20181 4 13.1648 15.598 8.7498 -9.7036 -32.1898 -12.1664 
20250 4 13.59 17.8559 9.69511 -13.9228 6.64619 -27.4526 
20247 2 13.6446 19.4223 9.89672 3.36692 28.9192 66.4138 
20175 2 13.7411 16.3389 9.95052 44.9154 116.594 88.3529 
20255 5 12.7826 16.0392 11.1348 -2.54873 -11.2324 -15.7462 
20251 5 12.5994 19.887 10.8751 -0.85296 -0.276911 10.6703 
22797 1 10.5866 17.8329 10.6706 3.09359 -1.48805 16.901 
22804 5 8.85928 16.0465 10.2629 -4.69415 -11.2231 -14.5536 
22806 5 9.15709 19.6726 10.6518 26.3671 -12.3445 -11.6131 
20209 6 12.874 15.0323 5.7533 0.470366 -0.370946 1.54314 
20174 8 12.7095 14.4625 7.54514 27.3995 11.1008 -53.979 
22802 4 7.35344 14.1712 9.46207 -20.9288 9.39981 -29.2189 
22707 1 10.7485 14.2517 10.2767 12.673 10.669 9.12269 
20180 3 10.8086 14.0423 7.95232 18.1739 -8.91643 5.00471 
20260 7 13.0324 18.8856 6.99744 0.140237 1.33424 1.26672 
20261 7 12.9162 17.3666 7.33817 -0.496724 10.6843 5.65314 
20401 7 13.4229 15.9899 5.62814 -0.160317 0.313298 -1.28772 
20406 9 10.0189 14.4108 7.4707 -1.26036 2.8693 -2.45954 
20413 7 11.9327 15.1884 5.26927 -0.0683109 -0.024601 -0.439558 
20222 6 12.7014 18.0477 6.67459 -0.760804 0.702093 -0.97661 
22813 7 7.7456 15.0607 6.62462 -0.0707239 -0.0479876 0.0567971 
22812 7 7.44152 13.8113 7.30537 0.746767 1.44763 6.42997 
17861 7 18.0327 18.1656 5.18632 -0.0413785 -0.0256776 -0.194853 
17849 7 19.1146 19.332 5.5722 -0.0515671 0.152837 -0.563432 
17657 6 18.7692 18.3451 5.88217 -4.90469 -2.69039 15.0611 
20252 5 14.9691 19.7344 10.5394 -8.70042 -13.8735 -18.1414 
20182 5 15.2166 16.0409 10.213 -3.91137 -20.4543 -13.9967 
17622 8 18.5634 18.0799 7.75046 32.1784 27.9511 -14.4368 
17854 9 15.9449 18.6012 8.0719 -0.29686 2.00996 -3.35498 
17628 3 16.7563 18.0742 8.25458 4.06572 -9.98351 9.71079 
17624 4 19.3217 16.6826 8.46567 -7.77694 -11.5367 -3.58286 
17629 4 18.9827 19.4332 8.85904 -13.6868 -12.3519 1.146 
17621 2 19.6951 15.6526 9.54627 46.2319 94.9937 80.7243 
17623 2 19.5501 20.2671 10.0023 53.9088 26.13 76.4709 
17630 5 21.0316 19.7719 10.2793 12.4791 -2.67248 -15.5198 
17627 5 21.1919 15.89 9.96206 0.948439 -17.6927 -16.3695 
20155 1 16.8424 17.9752 10.6946 2.24046 10.858 -19.0608 
17626 5 18.7672 15.8963 10.7355 -8.87709 -8.911 -12.1854 
20171 1 16.7158 14.1373 10.3208 5.68579 6.82766 -4.78335 
17625 4 19.606 14.0957 9.12525 -5.99943 7.87853 -11.6311 
17564 7 21.4906 17.2833 7.58657 -0.563071 1.58081 -1.15855 
17703 5 18.6795 20.0258 11.2014 -15.2921 -12.5252 -21.311 
17709 7 19.905 20.6273 7.34679 2.92103 4.94957 4.2135 
20259 7 15.568 20.8847 8.4035 12.1965 3.50274 -2.44002 
17526 6 22.4132 17.452 7.70597 -7.71241 -6.75018 17.6837 
17563 7 22.8092 16.6576 7.3521 0.275216 0.356847 -1.86212 
17619 1 22.5682 17.9268 10.3236 11.0829 12.7933 -38.8849 
15250 9 25.4259 16.554 7.3496 3.22928 4.19578 70.532 
15006 3 25.6058 15.7572 7.92658 -17.2792 -12.2327 54.8702 
15072 4 25.3173 20.4252 8.40544 -13.0532 -7.99666 -2.8701 
15073 4 25.9599 17.9542 9.15621 -15.9376 5.87142 -35.474 
15069 2 25.8295 19.4844 9.52152 47.2322 197.383 69.2215 
15075 5 27.2671 19.8707 9.91392 4.97922 -4.47478 -14.925 
15001 2 25.8934 16.4473 9.39988 32.1224 22.17 33.5381 
15007 5 27.2951 15.9854 9.7832 -0.566294 -10.4617 -15.7177 
14980 1 29.1857 17.8209 10.1444 -12.5139 -20.5698 14.7324 
15074 5 24.8028 19.6389 10.6176 -6.03349 -5.5276 -19.578 
15079 5 24.8396 16.1163 10.4638 8.65328 -3.34183 1.26354 
12533 7 25.4571 18.3754 7.23091 -0.392763 4.47842 6.01412 
17532 1 22.9834 14.1035 10.1761 9.7027 12.2021 7.72213 
14998 1 28.6373 13.9834 10.0874 20.3706 25.1136 12.9324 
12492 6 25.1645 17.9196 6.43544 -1.27333 -1.71712 -0.9146 
12532 7 24.2391 17.8074 6.45162 -0.0704272 0.0116031 -0.229036 
17636 7 24.2982 14.6547 7.77674 3.1796 -4.71321 -4.29678 
17597 6 27.3956 19.7327 6.47718 -16.4062 -1.05386 1.0278 
17635 7 27.0344 19.9354 7.31032 6.38885 1.20843 -2.34635 
17596 6 23.5563 13.9987 7.66239 -11.4272 -1.55947 4.40076 
14974 6 28.7308 14.0837 7.53935 -5.75384 -10.8941 7.2337 
17634 7 26.9707 18.9124 6.11254 0.289305 0.569377 -0.15477 
15084 7 28.6931 18.2675 6.90767 0.599179 2.77392 -1.52099 
15012 7 28.1952 14.867 7.30744 1.77825 1.79821 -1.70669 
15044 6 29.2899 17.8272 7.55162 -18.4516 -15.472 14.1864 
15011 7 29.5706 14.1102 6.99075 5.05493 0.874381 -0.243913 
25461 9 1.63963 21.1191 8.56579 -0.426392 9.02885 -5.94735 
25417 1 4.459 21.7465 10.9217 -17.1198 -19.8281 -30.2873 
24923 5 0.754769 27.5218 10.9484 6.05369 1.70604 -2.52589 
25425 3 1.35108 22.98 8.77836 -10.6002 -8.39132 18.129 
24927 5 0.559259 23.61 11.1153 15.4815 -1.74531 7.80533 
25426 5 3.10363 23.8017 10.4009 3.54632 -9.4626 -9.40724 
25420 2 1.64879 23.9265 10.0018 35.671 98.7187 59.2339 
25401 1 4.97038 25.5329 10.7242 12.036 4.88536 5.75092 
24924 5 3.18735 27.1766 10.4054 -6.06651 -6.17685 -13.9739 
24922 4 1.38256 25.4386 9.75254 -16.4272 10.355 -16.8889 
24919 2 1.7823 26.9563 9.95451 1.04571 144.961 60.8588 
24921 3 1.55556 27.7248 8.56562 -3.26727 -0.935939 8.33798 
25462 9 1.60156 23.3783 7.96981 -0.0545891 0.118501 1.81714 
22871 5 6.64021 23.6959 10.9095 4.79064 -4.69075 -4.60615 
25451 9 2.36751 27.8615 8.13061 0.0523382 0.481602 1.55001 
22375 5 6.78156 27.3777 11.2762 1.82269 -4.05693 -4.36882 
20355 9 13.7553 21.1037 8.67011 -2.57027 21.2954 -1.04892 
22873 3 7.36095 26.8242 8.94079 -1.95054 -2.89969 22.4237 
22910 9 7.83453 27.1872 8.16884 0.0217584 0.303385 5.20996 
22881 7 10.5673 22.2037 7.78641 0.17578 0.151273 -0.593312 
22880 7 12.0072 21.7432 8.22322 12.0736 4.43286 -4.64645 
22869 3 7.56442 24.0265 8.5961 -0.873301 -1.30595 0.672658 
22842 6 11.0399 21.8185 8.50693 -11.4871 -8.62157 2.88473 
22909 9 7.42422 24.9915 8.72358 -0.265236 9.49904 -0.534009 
22870 4 7.80675 21.6814 9.76784 -9.98536 13.083 -15.0617 
22781 1 10.8959 21.6885 11.0129 -25.4271 -19.2153 30.3527 
22868 2 7.76545 27.7412 10.1816 38.8012 97.9845 40.2937 
22867 2 7.78902 23.2324 9.92461 54.6819 190.526 74.3202 
22381 7 12.0152 26.341 8.4485 11.04 9.22016 -1.4443 
20253 3 13.4682 23.4016 8.82795 -29.4085 -27.9992 6.9818 
22380 7 10.8121 26.2531 7.54966 0.0743459 0.106553 0.100729 
22342 6 11.2091 25.8188 8.3988 -19.3029 -2.83739 29.8177 
20317 3 13.3219 27.8427 9.08682 -10.1974 -13.0464 -7.9673 
20248 2 13.7696 24.0294 10.2263 7.96547 3.47578 109.36 
20318 4 13.624 25.5447 10.0164 -29.0663 -18.953 -42.7485 
20315 2 13.7788 27.0543 10.3348 51.0793 -14.2183 80.0838 
22865 1 10.6865 25.3992 10.9226 12.6521 11.2909 25.8687 
22872 5 9.17462 23.6871 10.462 5.29682 -15.773 -14.1675 
22874 5 9.24947 27.6706 10.5948 6.81567 -9.64676 -9.90073 
20356 9 12.5954 23.6209 8.49206 10.2679 3.92863 -9.9473 
25431 7 14.1509 26.52 7.83751 1.08039 4.73329 6.78689 
20323 5 12.8525 23.6161 11.429 1.81066 -7.73003 0.663623 
25430 7 14.093 24.9955 7.86813 1.69697 4.78556 10.5769 
25395 6 14.4016 25.7329 7.27378 -0.140344 0.0906369 -0.165482 
20258 7 15.2294 22.3163 8.12146 1.35711 0.137457 -1.4303 
20223 6 16.0015 21.7513 8.2238 -7.32229 -1.24333 9.12929 
20245 1 16.5342 21.695 10.8038 16.2169 20.6507 33.222 
17698 4 19.4354 21.7483 9.56107 -12.142 -3.78945 -29.2235 
20320 5 15.2214 27.4242 10.856 4.4481 -11.428 -14.6118 
20254 5 15.1801 23.5949 10.561 -15.8673 -11.361 -20.7475 
20329 7 17.2434 26.6466 8.28058 4.04604 3.19555 -3.56977 
20328 7 16.0419 25.8023 7.61998 1.70806 -0.0148555 -0.0755297 
17803 9 18.6355 24.4714 8.19816 9.14298 9.23186 -0.604187 
20290 6 16.6573 25.8385 8.42977 -27.362 -4.75856 7.76366 
17697 3 19.4666 23.9299 8.24968 -7.44725 -15.5669 7.34611 
17701 3 18.7572 27.5768 9.07536 -11.6711 -29.4197 -3.8739 
17695 2 19.6311 23.298 9.64847 1.93694 5.79165 80.0086 
17696 2 19.6976 27.9701 10.2409 33.9339 100.216 91.8719 
17700 5 20.9899 23.6351 10.1729 -17.5158 -7.7259 -18.9403 
17702 5 21.0953 27.3466 10.1236 7.89305 -13.3508 -20.4676 
17699 5 18.7076 23.7838 10.7613 -3.38956 -4.28946 0.392616 
20229 1 17.0048 25.6018 10.9426 19.2492 14.9088 1.57821 
17708 7 20.0702 22.1005 7.0657 -0.235853 1.40536 0.743082 
17670 6 20.1319 21.2549 6.64674 -0.757611 0.845623 -1.21679 
17707 7 20.7868 25.2363 7.6314 4.6803 4.91841 -0.0677614 
17706 7 21.1787 26.5559 8.43819 0.132341 6.49783 6.91887 
17671 6 21.5933 25.7538 7.94146 -0.420088 -4.77956 5.08101 
17804 9 18.1596 28.2261 8.79174 4.36221 -0.382598 -2.94026 
15302 9 22.12 22.0167 7.2663 -10.758 2.28525 -0.684141 
15082 7 28.9341 21.4367 6.98265 -0.117367 1.9107 -3.03974 
15309 7 26.1711 21.1856 5.56242 -0.0510895 0.353993 -0.581397 
15297 7 25.7773 22.9358 5.36905 0.0249399 0.42205 0.0405322 
15076 3 22.8653 21.7306 7.945 5.1237 -10.2827 6.80632 
15105 6 25.4296 21.9972 5.7434 2.50535 2.79315 8.74616 
15067 1 28.5009 21.8246 10.3102 6.81674 13.5143 23.1427 
17603 1 22.8719 21.8054 10.3091 42.1238 31.2057 67.3636 
15070 8 24.6898 21.8654 7.53391 8.80538 21.9934 -5.54508 
15157 7 24.761 24.7113 6.5409 0.109577 1.44693 -2.15211 
17693 1 22.4585 25.6458 10.3024 35.3475 46.8323 74.4283 
15118 6 24.3516 25.0692 5.80024 0.215453 -0.0178315 -0.0827209 
15156 7 23.4675 25.4068 6.08223 0.348308 0.0664831 -0.0144394 
12750 9 28.7793 27.0604 8.02173 -18.128 -1.26635 -3.4293 
15145 3 25.8709 28.1424 8.32624 -25.0152 -10.1291 24.139 
15077 4 25.2347 23.1977 8.50469 -14.8348 -21.7793 -11.7224 
15146 4 25.5466 25.6818 9.29943 -7.82123 17.8358 -15.5384 
15143 2 25.8227 27.2278 9.63665 33.952 57.9158 40.2481 
15071 2 25.6377 24.1622 9.58877 42.8791 137.253 68.8132 
15078 5 27.0823 23.775 9.8664 3.41538 -1.50085 -11.8622 
15148 5 27.2019 27.5255 10.2775 11.3788 -13.2717 -15.3404 
15051 1 28.9278 25.6837 10.4438 0.647336 13.0083 51.3489 
15147 5 24.7278 27.7419 10.5663 3.71646 -1.92658 -7.59606 
12524 3 29.1596 26.0649 8.01414 -11.3318 -1.36775 8.79052 
15045 6 29.2043 21.7754 7.82857 -18.5247 -10.9817 5.46491 
15251 9 25.5134 27.6474 7.63837 -0.0797564 -0.287206 15.5681 
15151 5 24.6677 23.8201 10.7274 -4.76564 -8.04704 -15.2981 
25272 7 0.452609 4.55986 16.2958 4.92665 -1.4746 10.0588 
25198 5 4.5419 2.55475 12.6561 -16.4194 -10.2418 -11.317 
25195 5 4.3158 -1.09258 12.7632 -0.780313 -2.98926 2.19828 
25511 9 -0.111143 0.360577 16.0093 -13.6426 2.36016 -4.81552 
22635 1 6.05896 0.692999 12.8525 -30.2633 -9.60363 -9.79505 
25268 5 2.06322 2.89899 12.9931 -0.596238 -11.1425 -21.9744 
25258 1 0.250924 4.4912 12.7638 8.80138 3.0033 14.8662 
25207 1 0.476342 0.786529 13.0733 12.2883 36.4664 20.055 
25191 2 3.47612 3.03985 13.5769 22.9066 60.1435 65.7986 
25263 4 3.57926 4.53329 13.9916 -27.6359 1.31462 -33.8235 
25197 4 3.26023 2.0922 14.7531 -8.14979 -23.3573 -7.46515 
25192 4 3.04502 -0.482259 14.848 -6.10924 -8.28894 -2.83948 
25196 3 0.51963 0.827732 15.3706 20.5607 -15.3502 3.71261 
25190 8 2.38993 0.909478 15.7162 28.3287 27.8289 -6.82821 
25240 6 2.61612 1.00543 17.6028 -7.40697 -19.3516 9.6348 
25519 7 2.88795 0.297306 18.2794 0.101943 -18.2476 -28.4357 
25507 7 3.02524 1.88216 18.063 1.85254 -3.07665 -15.5186 
22649 6 4.10566 4.30375 16.8278 -27.396 50.1266 -22.7517 
25308 6 -0.0203015 4.52158 15.4093 -16.4818 -0.646246 32.5509 
25270 6 1.61076 4.8213 17.8606 -21.557 -9.83556 -11.5861 
25310 7 1.73735 5.27246 18.7342 -5.20622 12.4061 7.06596 
22655 1 6.37544 4.67075 12.8239 -5.24221 4.20567 -5.28001 
25194 5 1.89442 -1.62182 13.1754 -0.222981 -13.8858 -20.1493 
25189 2 3.31878 -1.5892 13.8009 48.0244 129.827 99.6291 
25309 7 2.5182 4.56954 17.653 7.87839 -2.56014 -6.01699 
22683 6 6.7485 0.892501 15.3134 -3.35045 -5.05278 -4.53259 
22684 7 3.77297 3.39023 16.4009 5.03048 27.6737 5.9829 
22644 3 6.86908 4.59086 15.1929 -2.67148 -16.9434 10.8566 
22759 7 4.91386 4.43559 18.3186 -1.30464 -2.31273 6.87574 
22959 9 6.24626 4.78854 16.0284 -26.8756 4.3963 -1.05375 
22685 7 3.99517 4.99865 16.0639 -0.0149185 26.6587 24.7099 
20062 7 6.40979 1.76801 18.1941 4.47254 -1.04197 1.0009 
20061 7 6.46491 3.18428 18.0474 3.19014 -8.97968 0.700556 
22650 7 7.04769 1.67521 15.8182 1.55203 2.02751 4.68 
22687 7 5.48407 -0.86373 19.0328 0.522989 5.89138 -5.15763 
20023 6 6.95945 2.43176 17.7556 -6.99055 -20.2667 -10.9189 
22923 9 8.69007 24.7275 18.8624 -2.0177 4.96202 -12.955 
22652 7 6.41623 -1.46136 16.3004 3.24822 -0.70325 -0.197954 
25311 7 -0.165142 4.57569 18.741 16.9482 -1.41572 -0.785734 
22717 6 5.40921 4.63276 19.184 -13.5718 -7.32276 1.85933 
22651 7 7.65244 0.492386 15.1917 7.80161 -0.715427 -1.50048 
20022 6 13.5026 2.50424 17.1887 14.4753 6.63784 -14.7027 
20101 7 9.36389 1.4423 17.0076 2.77287 10.5894 -0.763891 
22931 9 9.72532 -1.00995 15.7128 -0.910503 7.67913 -37.6128 
22643 5 10.3472 2.57234 12.1955 -3.02463 -5.11753 -8.70186 
20083 1 12.0539 4.57824 12.2941 21.6873 13.7882 24.451 
22642 5 7.78438 2.32799 12.6693 -2.05947 -8.96922 -21.3155 
22572 5 10.3915 -1.19034 12.4814 -1.99536 -8.0918 -11.2256 
22647 5 8.01803 -1.15376 13.3887 6.70867 -15.5966 -19.4793 
20029 1 12.4935 0.818447 12.5759 -3.65645 6.42279 -9.35906 
20095 5 13.8672 2.81253 13.0198 -14.4518 -11.2827 -17.0691 
22637 2 9.23854 2.21284 13.1776 49.5237 -19.0143 67.7925 
22565 2 9.47766 -0.798971 13.6553 42.1831 58.7724 49.2821 
22641 4 9.6135 0.790931 13.697 -30.3086 -10.203 -30.8982 
22640 4 9.10375 3.21619 14.2882 -14.2728 -33.8206 -18.1179 
20060 6 12.1095 1.07131 15.1375 -20.7787 -10.5225 -0.734174 
20025 7 12.6402 1.35489 15.871 2.10547 4.93759 -3.27954 
22638 8 8.71547 4.49292 15.3805 -37.5734 -5.5007 -66.1657 
20024 7 11.2026 0.915587 15.4326 9.56077 2.50306 -3.05605 
22688 6 9.55322 4.55611 17.1229 -5.8432 1.38205 -0.227641 
20130 6 9.67805 0.50017 16.915 0.464731 15.5265 2.56397 
20016 5 13.8732 -1.10957 13.0216 4.96546 -13.6825 -19.138 
20100 7 10.4653 0.406727 17.503 16.6822 -0.861421 4.00899 
22967 7 9.2457 3.89975 17.8649 -1.97518 -3.50189 -55.6368 
22571 3 10.005 -1.5313 14.9279 -24.6819 -17.7143 -5.98534 
20064 7 14.3606 2.31844 16.6376 5.1247 -0.699786 -11.7563 
20063 7 13.2836 3.40592 16.8858 -1.40253 0.36863 -0.141818 
22918 9 9.42539 -0.597561 18.8941 1.69224 7.5218 -5.98559 
20096 6 12.0961 0.659004 18.8285 -4.12039 -6.51068 26.3948 
20135 7 12.6197 1.12952 18.1472 6.16022 0.703281 -0.403294 
22919 9 8.126 2.85196 18.9726 7.70903 10.4424 124.99 
20366 9 14.1083 2.50345 18.9571 6.34567 5.47644 61.7163 
20099 7 10.8049 3.40314 19.1737 9.24923 2.86817 -3.50801 
20098 7 12.2531 3.57716 18.7997 3.0694 4.64823 2.30299 
22955 7 9.76302 5.48148 17.6212 2.87853 8.49188 -0.459137 
20379 9 16.329 2.08484 15.2925 -9.5735 3.94063 -44.1172 
20378 9 15.4007 0.0444891 14.8487 1.96379 43.1726 23.8115 
20012 2 15.2359 -1.61828 13.5115 13.3886 -67.0124 72.7307 
17469 5 19.9364 -1.30131 13.4326 -7.48094 -12.1985 -12.5167 
20017 5 16.2815 -1.21496 12.5395 11.2503 -0.973021 -1.04135 
20020 5 16.2894 2.4578 12.6312 -12.0365 -4.90916 -16.4432 
17477 1 18.4308 4.50707 12.7514 45.4721 38.8785 56.9216 
17458 1 18.218 0.637135 12.871 48.0531 35.4587 15.1104 
17464 5 19.9587 2.61017 13.0923 5.34611 -12.4653 -12.7849 
20014 3 15.3481 -0.927596 14.9324 -19.263 -2.73481 26.7797 
20013 2 15.2355 2.86552 13.6686 17.7464 -1.28884 38.2858 
20089 4 15.4847 4.41259 13.8828 -17.1388 -21.0975 -25.9282 
17460 2 21.2934 2.30374 13.8302 60.1396 44.6055 94.7984 
17386 2 21.2555 -0.760946 14.0881 55.9417 226.623 30.8041 
20019 3 15.3464 2.1931 15.0362 -13.1773 -22.9194 -9.46057 
17466 6 17.718 0.845128 15.4198 -28.3276 5.45311 36.0609 
17494 7 17.375 -0.119056 15.5981 9.32584 17.9431 -6.16237 
17493 7 18.0573 1.02564 16.3745 11.4244 7.27594 12.2956 
17471 6 19.1572 2.63286 16.9146 -50.7172 -40.7567 0.653815 
17510 7 19.8531 2.61203 16.3016 -5.88652 3.39018 -16.9887 
17509 7 19.6075 2.59078 17.8157 11.8002 -0.895114 21.7411 
17463 4 21.2166 0.803669 14.1626 -17.0623 13.8052 -31.8272 
17508 6 18.2219 4.75737 15.2791 -10.3201 -10.4784 8.97978 
17473 7 18.5451 4.01846 15.9006 2.90226 18.9519 1.44004 
14959 7 20.0461 -0.627891 18.103 0.0515533 2.47949 -0.103725 
14960 7 20.2174 0.835925 17.789 -0.0505863 -4.75278 1.67196 
17391 3 21.6098 -1.31069 15.4712 -6.37247 -23.0095 4.10503 
17825 9 20.9107 -0.891159 16.1266 9.07411 8.3203 2.37352 
17462 3 21.3008 3.14738 15.167 -28.5157 -27.6302 31.0812 
14918 6 20.2399 -0.0343151 17.3928 -7.36766 -26.8508 -30.7495 
17583 7 16.8255 4.84049 18.0878 1.05862 0.0685458 -0.650197 
17826 9 21.1198 4.03916 14.9832 -1.23788 85.0004 17.878 
17544 6 17.3765 4.22783 18.6035 -15.1429 -11.3517 24.665 
17582 7 17.8385 3.85754 17.8127 5.86171 5.94524 3.45651 
17456 7 16.4284 -0.404479 18.8429 3.51673 3.14391 -4.97718 
17457 7 16.0022 1.02238 19.0687 15.6386 9.2801 0.0640638 
17499 3 20.9352 2.67631 19.254 -11.5429 -6.60415 -21.5382 
17503 6 16.852 0.532225 18.9066 -14.3459 -2.74199 7.27704 
17813 9 20.7525 3.61779 19.1962 -0.6135 37.355 8.65136 
15264 9 27.6362 18.1361 19.1502 -23.1819 -3.79426 -169.89 
17472 7 17.2691 4.5789 15.1146 11.4816 0.521299 -3.38782 
14905 7 22.191 4.98483 18.6975 16.596 12.9519 -8.08772 
12293 7 29.3684 0.00043659 15.6329 15.572 2.23871 -3.40362 
15272 9 27.344 -1.53094 15.8665 1.86878 9.6458 40.1797 
12752 9 29.3396 4.22404 18.2654 -11.8928 4.06689 -3.31844 
17392 5 22.3788 -1.113 13.0479 12.8374 -0.844734 5.35619 
14833 2 27.436 -1.7351 13.7653 8.49749 71.8008 77.967 