ITEM: TIMESTEP
390000
ITEM: NUMBER OF ATOMS
25517
ITEM: BOX BOUNDS pp pp ff
-3.8959205201285124e-01 6.0088135642019459e+01
-1.9452389155355383e+00 5.9115524189537531e+01
-1.2206056431032383e+01 1.1390111600702880e+02
ITEM: ATOMS id type x y z v_stressx v_stressy v_stressz 
25292 7 5.89857 3.03966 7.5916 -2.46312 -8.49692 -6.18613 
25293 7 5.98077 1.53035 7.7064 -1.88979 -5.91297 -1.86903 
25252 6 5.35811 2.25094 7.51796 -6.35168 -3.23992 0.168677 
25287 5 0.61597 0.755495 10.7564 7.88183 -1.67668 4.63352 
25283 5 2.94291 4.2301 9.842 10.9574 6.35729 -13.2735 
25281 4 1.3887 2.44216 9.07367 -12.9865 1.94199 -16.9254 
25280 4 1.07853 5.00258 8.46007 -12.805 -8.59298 -6.99588 
25277 2 1.45655 3.94107 9.49571 50.8956 38.1962 80.9162 
25215 5 2.99957 0.588718 9.72621 -14.6674 -10.0741 -11.5808 
25209 2 1.59287 0.935181 9.44522 7.44438 -57.2534 72.7552 
25188 1 4.8243 2.58953 9.97468 5.50514 1.3845 13.7482 
25214 3 0.796635 0.0137284 8.44439 -1.89334 -4.38457 2.46017 
25282 5 0.520916 4.37471 10.6565 -14.9636 -14.4542 -18.1674 
25458 9 1.40812 -0.435335 7.83607 0.0254995 2.07251 1.6964 
25206 1 4.52732 -1.17961 10.115 34.4946 37.9124 19.3892 
22660 5 6.52822 0.875659 10.2203 -1.36469 -5.81005 -15.256 
22735 5 6.623 4.87348 10.5536 2.34488 -9.40942 -14.7768 
25505 7 1.83983 5.65447 5.50835 -0.0549729 -0.159502 -0.296577 
22662 3 7.17647 4.29529 8.22411 -12.1055 -23.3475 -18.2691 
22658 3 7.30314 0.346889 7.89736 -15.0056 -15.2153 -11.5745 
22905 9 7.65252 -0.485879 7.46068 0.0218756 -0.414451 -4.46951 
22906 9 7.50322 4.57024 7.35908 -2.72636 4.36162 9.74375 
20115 7 11.1372 2.292 6.49758 0.446307 -0.00634235 -1.15119 
22656 2 7.7059 0.365729 9.40584 22.5242 73.9365 61.2383 
20116 7 12.1136 2.88755 7.40659 19.6901 6.71222 2.63479 
20078 6 11.1398 2.86581 7.23657 -15.9666 -11.6662 1.66063 
20106 3 13.741 4.72985 7.46261 -15.8601 -11.1069 42.3047 
22657 2 7.60419 5.1024 9.41016 54.5401 -14.8208 21.2695 
20036 3 13.619 0.47741 7.57109 -16.6665 -19.5809 16.6349 
20107 4 13.6664 2.6833 8.8298 -18.2934 -14.3631 -34.0789 
20104 2 13.8784 4.18168 8.97251 32.2405 36.8736 94.3086 
20031 2 13.7132 1.1448 8.96008 63.3133 163.843 14.6649 
20108 5 12.6966 4.70757 9.81807 14.5397 11.8342 1.71631 
20112 5 12.4932 0.846951 9.91178 10.9614 -0.0928373 6.68333 
22654 1 10.4859 2.78478 9.68506 11.3859 10.3852 10.9933 
22661 5 9.03983 1.11007 9.56315 -7.58659 -6.43571 -16.0475 
22663 5 9.10858 4.7108 9.73761 4.41458 -12.9566 -14.988 
22563 1 10.886 -1.13469 10.1589 -0.454143 -0.458034 -14.286 
22659 4 7.7627 -1.12896 9.68153 -9.67672 -34.8602 -34.4359 
22629 6 11.3751 -1.065 7.76545 -16.8035 4.96656 2.30654 
22669 7 11.9249 -0.207968 7.44815 1.31498 5.22655 -1.2249 
20352 9 13.8605 1.22514 6.87465 0.726652 12.544 14.665 
20189 7 14.2777 3.18994 6.51456 0.286719 13.5245 8.35476 
20353 9 14.543 5.23857 7.22704 7.76133 13.2269 16.8574 
20148 6 14.5671 2.45013 5.87332 0.144704 0.057167 0.0985363 
22740 7 11.2703 5.5881 6.8279 3.2885 1.48833 -1.17045 
22738 7 8.76742 5.41578 5.90114 -0.677653 0.702081 -1.31565 
22701 6 7.85394 5.37142 5.69312 0.449746 -0.317563 7.76176 
22739 7 7.886 4.86164 4.87022 -0.0109731 0.0202268 0.00866609 
22670 7 11.9327 -1.89861 7.72342 1.05062 1.68033 -5.21419 
20188 7 15.4435 2.20345 6.22553 0.813325 -0.136964 0.083813 
20037 5 15.0057 0.565552 9.66218 -1.20826 -6.91314 -13.2339 
20118 7 17.8719 2.63796 7.70159 5.65528 -0.32725 -2.93386 
20117 7 17.6995 1.17882 7.44002 3.01722 2.54989 -4.72073 
17799 9 19.455 -0.241526 7.33338 0.333667 6.59847 18.0219 
20077 6 17.1284 2.01775 7.60787 -23.1594 2.37097 26.9693 
17484 3 19.536 4.02271 8.03155 -4.22153 -2.56934 -2.35811 
20109 5 15.1822 4.68195 9.53593 -5.85286 -7.31721 -17.2548 
17480 3 19.3808 0.510653 7.95906 -16.4162 -31.9244 11.2662 
17478 2 19.7385 0.13463 9.405 32.3936 34.9373 45.6111 
17479 2 19.7269 4.90401 9.32133 46.7793 113.506 60.1865 
17485 5 21.0972 4.45706 9.83859 4.97491 -16.0601 -16.3199 
17483 5 21.125 0.57616 9.92672 5.1689 -10.1339 -12.9058 
17482 5 18.7273 0.612358 10.4453 0.922418 -3.86914 -7.21321 
17560 5 18.5746 4.39351 10.2378 -1.18872 1.61469 -10.9439 
20011 1 16.7883 2.43064 10.1919 50.043 46.2104 39.541 
20028 1 16.5417 -1.33752 10.1131 23.8649 17.2617 9.22655 
17481 4 19.613 -1.37684 9.30614 -12.2152 -19.3121 -36.9181 
17800 9 20.2785 3.41394 7.96437 0.321308 -2.88821 -5.44876 
20002 6 16.2002 -1.21507 7.53432 -10.4637 -7.54404 13.4897 
20044 7 15.5857 -0.449442 7.68688 4.36465 8.56777 -2.95005 
20043 7 16.3516 -1.12082 6.60323 0.282891 0.201734 -0.831968 
17377 6 19.8786 -1.6773 6.3322 0.245978 -0.139073 -0.0230862 
17415 7 20.5742 -1.92657 6.98281 2.89508 2.49374 2.23098 
14864 7 23.6314 3.83266 7.75133 5.59175 -4.68916 -1.45556 
14825 6 23.2988 2.969 7.82153 -9.30904 -3.83673 1.34002 
14863 7 24.1611 2.53617 7.90018 3.88355 -1.3079 -0.578556 
17476 1 22.5994 2.5974 10.2549 -65.5868 -41.1724 53.7522 
14928 3 25.5679 4.59148 8.20809 -31.408 -49.9923 -46.3888 
15246 9 24.7065 0.00657495 8.04332 7.97283 10.7994 19.9122 
14856 3 25.5405 0.383335 8.16649 -12.5913 -14.8106 10.9301 
14929 4 25.6618 2.47021 9.27814 -17.896 -35.0213 -34.2554 
14851 2 25.7726 0.935136 9.6021 20.2748 -189.68 77.2881 
14926 2 25.8313 3.99121 9.61155 29.0738 145.752 90.0212 
14857 5 27.172 0.513951 10.0212 -9.71942 -11.8612 -21.3287 
14931 5 27.2703 4.30837 10.1061 -28.2799 -11.5092 -17.8917 
14832 1 28.9014 2.41808 10.4207 14.2759 12.2598 35.1807 
14930 5 24.8007 4.37565 10.6576 12.4687 -4.60391 -13.0154 
14934 5 24.7275 0.511689 10.6576 4.38003 -3.92671 -0.759632 
17384 1 22.8636 -1.16741 10.5973 -2.26682 4.42054 -22.8321 
14848 1 28.7231 -1.43222 10.2624 14.0329 19.26 -38.4329 
14898 6 29.1786 2.45721 7.88738 -13.6749 -15.3377 6.27481 
15247 9 26.3681 4.66526 7.72718 -1.61494 -1.09492 -15.3244 
14826 6 28.1456 -1.3901 7.71182 1.18777 -3.6394 27.0538 
14861 7 27.5228 -0.59177 7.7367 5.01839 5.87958 -2.26658 
14862 7 28.7608 -1.17174 6.9734 0.156053 0.0395973 -0.0674813 
17565 7 23.8543 5.62398 7.62904 12.5161 3.7436 -1.67342 
17491 7 23.3409 -0.830267 7.25909 0.0993732 0.0723828 -0.454958 
12347 6 29.4782 5.3719 8.00631 -15.2749 -7.26748 4.12124 
14939 7 29.2544 3.33895 7.63004 0.445877 -0.922858 -1.21461 
17492 7 24.1978 -1.77871 8.08715 8.22838 2.50215 -6.3113 
17450 6 23.2929 -1.42611 8.02021 -21.773 -7.02998 19.0654 
25291 7 5.22591 6.53661 7.32751 1.19721 1.6754 -3.10703 
25290 7 3.82687 6.55555 6.86919 -0.667937 1.6777 -4.36365 
25253 6 4.33607 6.71227 7.63615 -9.73095 -11.7376 1.6824 
25517 7 1.84279 7.29014 5.50902 -0.0248793 -0.0534109 -0.553456 
25313 6 1.21101 6.45671 5.78137 5.98062 -5.52398 30.3529 
25362 7 1.19888 10.608 6.31952 -0.0137969 -0.00410803 -0.0205991 
25275 1 4.36027 6.50413 10.1833 4.27909 13.1702 11.8261 
25278 8 0.639374 6.49188 7.63496 53.0247 32.3063 10.0181 
22958 9 3.89074 10.3239 7.2783 -3.44526 1.51022 0.281588 
22732 3 4.70032 10.3548 7.96195 2.24123 -12.6487 13.6607 
25359 5 0.701437 8.49354 11.0939 -9.99512 -10.4741 -16.4662 
25356 5 3.08021 12.146 10.2169 9.87934 0.00347481 -12.9423 
25355 5 0.535314 12.2845 10.6518 -2.74089 -5.515 -9.5493 
25354 4 1.48185 10.2856 9.54639 -13.7462 14.0562 -26.9888 
25353 3 1.39194 12.6945 8.41831 -11.8696 -8.05502 3.28777 
25351 2 1.63225 11.8296 9.72046 40.8146 48.0735 67.2402 
25286 5 2.93236 8.28049 10.0288 -5.59221 -15.9647 -18.811 
25285 4 0.892127 7.85648 8.74192 -20.7081 -18.6343 -4.77376 
25279 2 1.49492 8.71367 9.83417 16.5731 98.4168 77.2494 
25259 1 4.86194 10.2149 10.3927 7.70573 9.43185 54.2681 
25327 6 1.60703 9.7444 6.34125 2.30596 1.2653 -0.849195 
25363 7 1.38635 9.50649 7.2315 0.518369 2.8113 1.48236 
22807 5 6.5607 12.2849 10.8694 -15.7191 -14.5677 -17.6011 
22730 5 6.65234 8.34528 10.5398 -4.69758 -14.6019 -13.1693 
22726 8 6.48614 10.4372 7.49213 -1.41077 17.9205 -26.2957 
22761 6 7.05704 10.8316 5.66761 1.74825 2.49003 6.7854 
22733 4 6.9844 11.7221 8.61372 -10.9529 -12.7037 -2.41452 
22728 4 7.23016 9.05362 8.29312 -12.9197 -20.2961 -5.53214 
22953 7 7.91026 10.1976 5.3838 -0.0666496 0.100662 -0.650508 
22965 7 7.33207 11.8331 5.45166 -0.0482155 0.142063 -0.276088 
22741 7 11.5 7.01103 7.05421 2.61044 -0.0278856 -1.55958 
22700 6 10.8104 6.36788 7.23855 -16.1421 -2.17045 18.4719 
22636 1 10.9188 6.69179 9.82281 4.73801 9.57443 11.71 
22729 4 7.48133 6.61374 9.11192 -11.3066 -8.57764 -27.0922 
22668 7 10.5831 8.59932 7.42923 1.92383 4.35814 -3.25784 
22725 2 7.70374 8.13304 9.39568 27.6564 31.7581 95.5888 
22727 2 7.53968 12.6129 9.75953 17.3224 132.999 80.525 
22630 6 10.7174 9.56513 7.55044 -8.23275 0.729007 5.47843 
22667 7 11.6785 9.56 7.58776 1.28044 0.730985 -1.35855 
20110 3 13.3722 8.00482 7.87861 -11.0477 -1.14143 -3.57448 
20176 4 13.3404 12.979 8.33811 -6.62643 -6.94422 -4.16457 
20177 4 13.5478 10.5013 8.95979 -6.37628 -0.319238 -16.1619 
20173 2 13.7057 11.9908 9.40771 33.9478 -5.26932 75.4095 
20105 2 13.7244 8.93675 9.12343 -1.42445 7.46553 85.3298 
20178 5 12.5598 12.2564 10.4158 -7.67134 -12.3079 -21.6557 
20183 5 12.8988 8.51128 10.3587 -3.57577 -11.3123 -7.79392 
22734 5 8.97942 12.4092 10.1072 -12.4251 -12.4735 -17.3846 
22723 1 10.5486 10.4168 9.97488 -2.93817 4.3325 9.14397 
22731 5 9.11607 8.33188 9.85191 -15.6531 -24.4125 -21.8967 
20354 9 13.8366 7.1662 8.02076 -1.09586 -12.2895 -25.422 
17489 7 15.3685 7.53149 7.27379 -6.20297 -2.26156 -3.73559 
17490 7 16.4114 7.08597 6.51817 -0.225092 0.0337842 -0.310511 
17451 6 15.9423 6.78743 7.29642 -18.776 -17.3489 17.0579 
17555 4 19.5148 6.40419 9.24816 -10.8885 2.32243 -18.6478 
20102 1 16.4765 6.46221 9.86905 10.8891 0.228333 18.3177 
20179 5 15.0791 12.3713 9.86379 2.80193 3.87188 -10.962 
20111 5 15.0953 8.51182 9.52882 -26.0915 -14.0814 -14.4795 
17802 9 19.4832 11.878 7.51898 -0.106353 -0.0993534 0.157641 
17554 3 19.6317 8.68088 7.9737 -1.90317 -5.32813 6.12184 
17801 9 19.3812 9.57046 8.10065 0.671788 12.1734 6.37808 
17558 3 19.3121 11.5602 8.35726 -4.31739 -2.11225 -0.530283 
17552 2 19.7279 7.97853 9.40881 25.623 58.5727 60.3693 
17553 2 19.7446 12.5897 9.5152 42.7013 43.5575 66.1039 
17559 5 21.2085 12.1329 9.83297 6.76996 -0.610484 -10.7678 
17557 5 21.1128 8.33065 9.93016 0.864402 -11.5599 -15.6579 
17556 5 18.49 8.44005 10.194 12.449 -4.22273 -7.66617 
17631 5 18.754 12.2185 10.6826 1.64926 -5.67142 -1.35009 
20084 1 16.8199 10.2664 10.3615 -12.3844 -5.35358 -0.510193 
17566 7 22.7737 6.49197 7.09029 0.0942981 0.0183388 0.0495952 
17525 6 23.2369 6.30614 7.97014 -29.8729 -6.06535 17.4454 
15249 9 26.4199 12.3989 7.50271 0.848929 0.689325 0.25767 
14924 1 28.8784 6.30371 10.2599 25.2635 20.5094 10.1218 
17459 1 22.8153 6.36449 10.4136 -85.5554 -67.8846 -3.57093 
17550 1 22.6813 10.1773 10.109 18.8835 17.6018 8.47856 
15248 9 25.0074 7.30471 8.25379 6.74418 8.88745 8.75173 
15002 3 25.5553 12.1132 7.86039 -4.8864 -8.84235 8.8615 
14932 3 25.8534 7.69566 8.37038 -4.69294 -4.20739 1.28175 
15003 4 25.6929 10.0578 9.40228 -9.15869 -5.74601 -23.2033 
15000 2 25.8234 11.5586 9.33827 29.472 102.713 71.8713 
14927 2 25.9265 8.52626 9.67582 40.5543 65.7815 73.2962 
15005 5 27.2586 12.0307 9.65026 -1.70625 -12.8921 -16.9288 
14933 5 27.3368 8.19806 10.2714 9.63866 -13.6608 -17.281 
15004 5 24.794 12.1885 10.2281 1.28477 3.10062 -12.0355 
14907 1 29.0423 10.186 10.3202 23.5008 18.6215 21.6541 
15008 5 24.7476 8.17989 10.6591 15.6453 -0.0840107 -2.14519 
14899 6 29.4402 9.94521 7.67407 -3.2353 0.0388091 5.31785 
17637 7 24.0129 13.1402 7.48134 1.61032 0.648384 -0.200038 
25427 5 0.471403 16.2254 10.9577 5.96771 -3.72877 -6.22341 
25424 5 3.05777 19.7432 10.2643 -15.2088 -6.30006 -9.96344 
25423 5 0.62854 19.9386 10.7649 4.12059 -4.17922 -10.2574 
25422 4 1.53223 17.8586 9.5283 -9.83879 7.07426 -14.5752 
25421 3 1.35286 20.1653 8.46116 -3.247 -2.58136 -0.143964 
25419 2 1.68921 19.4163 9.80763 -40.7706 139.652 66.413 
25358 5 3.0433 15.9649 10.3935 5.90815 -1.21298 -11.9831 
25352 2 1.62447 16.359 9.9389 57.4 2.86348 39.0159 
25333 1 4.76049 17.9652 10.8964 -5.02572 13.261 -5.63581 
25357 3 1.27516 15.4524 8.77037 -12.0336 -17.3837 19.0979 
25460 9 1.6173 15.8283 7.87293 0.093598 0.363874 4.21093 
25349 1 4.58657 14.1062 10.6957 6.56359 16.4276 -18.1445 
22803 5 6.49129 16.0975 10.8756 1.44916 -0.451632 0.388621 
22875 5 6.46084 20.071 11.1158 20.2993 8.20745 12.4255 
25459 9 1.48999 13.6574 8.56205 -1.73945 4.75551 -4.01293 
22801 3 7.03055 16.5942 8.55987 -2.20106 -6.96984 4.13775 
2179 7 -0.387305 20.8468 8.22815 14.408 2.22982 -6.27681 
22805 3 7.32975 19.3599 8.91011 -8.4616 -8.71529 25.9546 
22908 9 7.54595 19.9046 8.12021 0.00853867 0.261677 6.53859 
22774 6 7.84223 14.1301 6.46407 2.0229 1.25507 1.90268 
22907 9 7.21638 17.5067 8.66763 -0.0926871 20.2466 1.70593 
22800 2 7.69826 20.1918 10.1825 71.4469 57.8218 36.7346 
22810 7 9.52718 17.6319 7.67339 -2.03877 0.947864 -1.98652 
22775 6 10.3724 17.5576 8.1234 -18.058 -9.02578 6.37169 
22811 7 11.0269 17.744 7.42304 6.09307 1.04899 -1.18531 
20249 3 13.6146 20.1923 8.5115 -17.5258 -16.1526 19.4719 
22799 2 7.50164 15.6895 9.76752 1.76144 21.4868 71.3518 
20181 4 13.1648 15.598 8.7498 -9.74096 -32.2467 -12.237 
20250 4 13.59 17.8559 9.69511 -13.9164 6.62696 -27.3828 
20247 2 13.6446 19.4223 9.89672 3.70102 29.3635 69.9614 
20175 2 13.7411 16.3389 9.95052 45.0933 117.52 86.2196 
20255 5 12.7826 16.0392 11.1348 -2.33771 -11.5894 -15.6433 
20251 5 12.5994 19.887 10.8751 -0.467862 0.0109224 4.52773 
22797 1 10.5866 17.8329 10.6706 3.62711 -1.09302 14.4066 
22804 5 8.85928 16.0465 10.2629 -4.69508 -11.1876 -14.2218 
22806 5 9.15709 19.6726 10.6518 26.1258 -12.5528 -11.5267 
20209 6 12.874 15.0323 5.7533 0.471983 -0.362637 1.50484 
20174 8 12.7095 14.4625 7.54514 27.4812 11.0524 -53.3165 
22802 4 7.35344 14.1712 9.46207 -21.0507 9.26299 -29.3039 
22707 1 10.7485 14.2517 10.2767 12.1361 10.479 -15.387 
20180 3 10.8086 14.0423 7.95232 18.1496 -8.96124 4.63874 
20260 7 13.0324 18.8856 6.99744 0.137958 1.33926 1.27334 
20261 7 12.9162 17.3666 7.33817 -0.497152 10.6396 5.65828 
20401 7 13.4229 15.9899 5.62814 -0.16049 0.311321 -1.28176 
20406 9 10.0189 14.4108 7.4707 -1.25423 2.88804 -2.28253 
20413 7 11.9327 15.1884 5.26927 -0.0683818 -0.0247973 -0.439346 
20222 6 12.7014 18.0477 6.67459 -0.755928 0.705142 -0.982909 
22813 7 7.7456 15.0607 6.62462 -0.0704382 -0.0483167 0.0621835 
22812 7 7.44152 13.8113 7.30537 0.741772 1.46605 6.50853 
17861 7 18.0327 18.1656 5.18632 -0.0414042 -0.0257608 -0.195401 
17849 7 19.1146 19.332 5.5722 -0.052506 0.152224 -0.563816 
17657 6 18.7692 18.3451 5.88217 -4.87131 -2.67535 15.0801 
20252 5 14.9691 19.7344 10.5394 -8.27963 -13.4282 -17.789 
20182 5 15.2166 16.0409 10.213 -4.1053 -20.7516 -13.6324 
17622 8 18.5634 18.0799 7.75046 32.225 27.9376 -14.0402 
17854 9 15.9449 18.6012 8.0719 -0.299723 2.0213 -3.21155 
17628 3 16.7563 18.0742 8.25458 4.09272 -9.97642 9.57394 
17624 4 19.3217 16.6826 8.46567 -7.82768 -11.5465 -3.68337 
17629 4 18.9827 19.4332 8.85904 -13.7646 -12.3764 1.27118 
17621 2 19.6951 15.6526 9.54627 46.4078 94.979 81.8259 
17623 2 19.5501 20.2671 10.0023 53.8636 26.4095 75.3621 
17630 5 21.0316 19.7719 10.2793 12.2703 -2.80492 -15.3126 
17627 5 21.1919 15.89 9.96206 1.08073 -17.6484 -16.7841 
20155 1 16.8424 17.9752 10.6946 1.96345 10.8795 -26.7382 
17626 5 18.7672 15.8963 10.7355 -8.5913 -8.65861 -12.3 
20171 1 16.7158 14.1373 10.3208 4.62048 5.95165 -5.2753 
17625 4 19.606 14.0957 9.12525 -6.08032 7.79325 -11.4531 
17564 7 21.4906 17.2833 7.58657 -0.558251 1.58963 -1.15524 
17703 5 18.6795 20.0258 11.2014 -15.3957 -12.6396 -21.1673 
17709 7 19.905 20.6273 7.34679 2.91544 4.94847 4.39448 
20259 7 15.568 20.8847 8.4035 12.2223 3.58141 -2.18257 
17526 6 22.4132 17.452 7.70597 -7.72787 -6.80679 17.742 
17563 7 22.8092 16.6576 7.3521 0.270798 0.364141 -1.90302 
17619 1 22.5682 17.9268 10.3236 11.6281 12.6587 -12.6697 
15250 9 25.4259 16.554 7.3496 3.23279 4.21223 70.4753 
15006 3 25.6058 15.7572 7.92658 -17.2804 -12.279 55.4541 
15072 4 25.3173 20.4252 8.40544 -12.9915 -7.84513 -2.73349 
15073 4 25.9599 17.9542 9.15621 -15.739 6.0517 -34.8744 
15069 2 25.8295 19.4844 9.52152 47.0099 196.115 66.7297 
15075 5 27.2671 19.8707 9.91392 4.92738 -4.14407 -14.378 
15001 2 25.8934 16.4473 9.39988 31.4279 22.2055 32.5991 
15007 5 27.2951 15.9854 9.7832 -0.491929 -10.4476 -15.7227 
14980 1 29.1857 17.8209 10.1444 -13.0619 -20.5584 16.3016 
15074 5 24.8028 19.6389 10.6176 -5.83989 -5.10349 -18.4576 
15079 5 24.8396 16.1163 10.4638 8.44944 -3.61904 0.583276 
12533 7 25.4571 18.3754 7.23091 -0.367184 4.53262 6.2788 
17532 1 22.9834 14.1035 10.1761 9.88504 12.6241 9.03066 
14998 1 28.6373 13.9834 10.0874 20.1002 24.9057 13.0194 
12492 6 25.1645 17.9196 6.43544 -1.27658 -1.72246 -0.968046 
12532 7 24.2391 17.8074 6.45162 -0.0702624 0.0127692 -0.219356 
17636 7 24.2982 14.6547 7.77674 3.1444 -4.71711 -4.64483 
17597 6 27.3956 19.7327 6.47718 -16.3766 -1.12225 0.704786 
17635 7 27.0344 19.9354 7.31032 6.35363 1.24393 -2.17611 
17596 6 23.5563 13.9987 7.66239 -11.3969 -1.55957 4.7554 
14974 6 28.7308 14.0837 7.53935 -5.87203 -10.9605 7.28847 
17634 7 26.9707 18.9124 6.11254 0.289005 0.570292 -0.14594 
15084 7 28.6931 18.2675 6.90767 0.598609 2.77547 -1.48716 
15012 7 28.1952 14.867 7.30744 1.78934 1.80759 -1.70552 
15044 6 29.2899 17.8272 7.55162 -18.5622 -15.4485 14.1047 
15011 7 29.5706 14.1102 6.99075 5.06052 0.880423 -0.238216 
25461 9 1.63963 21.1191 8.56579 -0.407603 9.03019 -5.98057 
25417 1 4.459 21.7465 10.9217 -17.0727 -19.7022 -30.1531 
24923 5 0.754769 27.5218 10.9484 5.74779 1.62408 -3.71507 
25425 3 1.35108 22.98 8.77836 -10.705 -8.37965 18.2426 
24927 5 0.559259 23.61 11.1153 15.8212 -1.66984 8.68854 
25426 5 3.10363 23.8017 10.4009 3.54313 -9.46551 -9.35139 
25420 2 1.64879 23.9265 10.0018 35.8282 98.2113 59.3891 
25401 1 4.97038 25.5329 10.7242 12.4646 4.89547 9.19262 
24924 5 3.18735 27.1766 10.4054 -6.2234 -6.14241 -13.8902 
24922 4 1.38256 25.4386 9.75254 -16.4191 10.4578 -17.1458 
24919 2 1.7823 26.9563 9.95451 0.728018 144.602 61.1729 
24921 3 1.55556 27.7248 8.56562 -3.22599 -0.952191 8.30864 
25462 9 1.60156 23.3783 7.96981 -0.0543814 0.117906 1.81401 
22871 5 6.64021 23.6959 10.9095 4.89518 -4.77507 -4.96185 
25451 9 2.36751 27.8615 8.13061 0.0520712 0.482471 1.55718 
22375 5 6.78156 27.3777 11.2762 2.09302 -3.81534 -3.40845 
20355 9 13.7553 21.1037 8.67011 -2.61342 21.3353 -0.7688 
22873 3 7.36095 26.8242 8.94079 -1.69895 -2.96738 22.6337 
22910 9 7.83453 27.1872 8.16884 0.0161968 0.304706 5.19617 
22881 7 10.5673 22.2037 7.78641 0.178638 0.152274 -0.597875 
22880 7 12.0072 21.7432 8.22322 12.1043 4.45894 -4.50298 
22869 3 7.56442 24.0265 8.5961 -0.847756 -1.30233 0.786002 
22842 6 11.0399 21.8185 8.50693 -11.7601 -8.68231 2.40202 
22909 9 7.42422 24.9915 8.72358 -0.314913 9.49555 -0.702933 
22870 4 7.80675 21.6814 9.76784 -9.82684 12.94 -14.6095 
22781 1 10.8959 21.6885 11.0129 -25.7161 -19.5046 20.8617 
22868 2 7.76545 27.7412 10.1816 38.1548 97.7163 39.247 
22867 2 7.78902 23.2324 9.92461 54.1145 190.192 72.9372 
22381 7 12.0152 26.341 8.4485 11.0624 9.21195 -1.57504 
20253 3 13.4682 23.4016 8.82795 -29.3384 -27.6421 7.02664 
22380 7 10.8121 26.2531 7.54966 0.0747655 0.106932 0.0940675 
22342 6 11.2091 25.8188 8.3988 -19.404 -2.76877 30.3228 
20317 3 13.3219 27.8427 9.08682 -10.3727 -13.198 -8.7186 
20248 2 13.7696 24.0294 10.2263 8.42901 4.65422 110.681 
20318 4 13.624 25.5447 10.0164 -29.2341 -19.1783 -44.082 
20315 2 13.7788 27.0543 10.3348 51.9838 -14.1841 85.7387 
22865 1 10.6865 25.3992 10.9226 12.2163 11.3225 14.9756 
22872 5 9.17462 23.6871 10.462 5.25283 -15.7029 -14.5551 
22874 5 9.24947 27.6706 10.5948 6.71362 -9.69982 -10.2311 
20356 9 12.5954 23.6209 8.49206 10.2801 3.84788 -9.98117 
25431 7 14.1509 26.52 7.83751 1.0904 4.74666 6.6447 
20323 5 12.8525 23.6161 11.429 2.09245 -8.11648 0.825158 
25430 7 14.093 24.9955 7.86813 1.71363 4.74472 10.2985 
25395 6 14.4016 25.7329 7.27378 -0.140697 0.0901398 -0.14892 
20258 7 15.2294 22.3163 8.12146 1.3646 0.127429 -1.37785 
20223 6 16.0015 21.7513 8.2238 -7.34752 -1.26 8.92246 
20245 1 16.5342 21.695 10.8038 16.2955 20.4949 42.5306 
17698 4 19.4354 21.7483 9.56107 -12.1835 -3.8934 -28.8424 
20320 5 15.2214 27.4242 10.856 4.53894 -11.1763 -15.515 
20254 5 15.1801 23.5949 10.561 -15.9207 -11.629 -20.2153 
20329 7 17.2434 26.6466 8.28058 4.00612 3.22526 -3.65962 
20328 7 16.0419 25.8023 7.61998 1.70713 -0.0123441 -0.104485 
17803 9 18.6355 24.4714 8.19816 9.15393 9.23992 -0.572804 
20290 6 16.6573 25.8385 8.42977 -27.2068 -4.87358 8.19321 
17697 3 19.4666 23.9299 8.24968 -7.4772 -15.5905 7.12137 
17701 3 18.7572 27.5768 9.07536 -11.3951 -29.6957 -3.48129 
17695 2 19.6311 23.298 9.64847 2.00173 5.13958 79.2752 
17696 2 19.6976 27.9701 10.2409 33.6117 101.378 90.2471 
17700 5 20.9899 23.6351 10.1729 -17.3617 -7.42181 -18.7941 
17702 5 21.0953 27.3466 10.1236 7.6648 -13.8242 -20.3994 
17699 5 18.7076 23.7838 10.7613 -3.21216 -4.18336 -1.69595 
20229 1 17.0048 25.6018 10.9426 19.494 14.9205 7.39791 
17708 7 20.0702 22.1005 7.0657 -0.236337 1.40132 0.850532 
17670 6 20.1319 21.2549 6.64674 -0.747347 0.85258 -1.3431 
17707 7 20.7868 25.2363 7.6314 4.68318 4.92175 -0.0110981 
17706 7 21.1787 26.5559 8.43819 0.156595 6.52449 6.80323 
17671 6 21.5933 25.7538 7.94146 -0.468749 -4.81893 5.14604 
17804 9 18.1596 28.2261 8.79174 4.30185 -0.36225 -3.0533 
15302 9 22.12 22.0167 7.2663 -10.7505 2.28615 -0.577889 
15082 7 28.9341 21.4367 6.98265 -0.122602 1.92011 -3.05425 
15309 7 26.1711 21.1856 5.56242 -0.0512136 0.354178 -0.580522 
15297 7 25.7773 22.9358 5.36905 0.024904 0.422123 0.0410449 
15076 3 22.8653 21.7306 7.945 5.07809 -10.3369 6.42251 
15105 6 25.4296 21.9972 5.7434 2.50929 2.79397 8.71448 
15067 1 28.5009 21.8246 10.3102 8.06899 14.479 39.7322 
17603 1 22.8719 21.8054 10.3091 41.8157 31.1653 65.5465 
15070 8 24.6898 21.8654 7.53391 8.70569 22.161 -4.97839 
15157 7 24.761 24.7113 6.5409 0.0936393 1.43492 -2.22333 
17693 1 22.4585 25.6458 10.3024 35.647 47.2724 14.9792 
15118 6 24.3516 25.0692 5.80024 0.215804 -0.0172464 -0.0799144 
15156 7 23.4675 25.4068 6.08223 0.34805 0.0661264 -0.0155292 
12750 9 28.7793 27.0604 8.02173 -18.148 -1.3021 -3.43085 
15145 3 25.8709 28.1424 8.32624 -25.1816 -10.2235 23.9712 
15077 4 25.2347 23.1977 8.50469 -14.8919 -21.9784 -11.5998 
15146 4 25.5466 25.6818 9.29943 -8.10504 17.7772 -15.5308 
15143 2 25.8227 27.2278 9.63665 34.9098 57.1652 40.9633 
15071 2 25.6377 24.1622 9.58877 44.1632 138.389 69.9419 
15078 5 27.0823 23.775 9.8664 3.26169 -1.77465 -12.1243 
15148 5 27.2019 27.5255 10.2775 11.2111 -13.0853 -15.8469 
15051 1 28.9278 25.6837 10.4438 0.257853 13.0964 48.7016 
15147 5 24.7278 27.7419 10.5663 3.7952 -1.76726 -7.82571 
12524 3 29.1596 26.0649 8.01414 -11.2508 -1.28229 8.81049 
15045 6 29.2043 21.7754 7.82857 -18.5189 -11.1083 5.1861 
15251 9 25.5134 27.6474 7.63837 -0.0835058 -0.277958 15.542 
15151 5 24.6677 23.8201 10.7274 -5.01178 -8.37391 -16.0087 
25272 7 0.706594 4.53867 16.1228 -2.50182 -0.778045 -2.30013 
25198 5 4.5419 2.55475 12.6561 -16.9388 -10.9958 -9.53267 
25195 5 4.3158 -1.09258 12.7632 -1.39972 -3.97503 2.42192 
25511 9 -0.0879805 0.63217 16.0273 -32.6491 4.83414 -3.3655 
22635 1 6.05896 0.692999 12.8525 -19.3594 -3.47499 -2.80003 
25268 5 2.06322 2.89899 12.9931 -0.412007 -11.0392 -22.88 
25258 1 0.250924 4.4912 12.7638 5.61851 0.635572 2.88023 
25207 1 0.476342 0.786529 13.0733 15.8321 42.6015 23.7397 
25191 2 3.47612 3.03985 13.5769 19.1356 115.718 61.5068 
25263 4 3.57926 4.53329 13.9916 -29.3223 12.0191 -38.0569 
25197 4 3.26023 2.0922 14.7531 -11.8079 -27.1822 -7.38694 
25192 4 3.04502 -0.482259 14.848 -8.47078 -20.7234 -8.0736 
25196 3 0.614588 0.987905 15.3877 -0.7789 -17.4514 7.09677 
25190 8 2.45886 0.874963 15.805 -56.1233 9.8007 -39.393 
25240 6 2.92616 0.636554 17.6371 6.20331 -4.3408 6.12991 
25519 7 3.58375 -0.220165 17.8474 2.362 6.42267 -15.4085 
25507 7 3.22006 1.45148 18.3407 -1.51068 9.04733 -14.3504 
25308 6 0.232908 4.54229 15.3141 -24.218 -7.88509 0.907484 
25270 6 1.85823 4.48172 17.9792 -27.192 -18.2099 -13.7217 
25310 7 1.88494 5.08787 18.7563 -4.56124 9.23581 3.21742 
22655 1 6.37544 4.67075 12.8239 -7.78608 5.16643 -7.97391 
25194 5 1.89442 -1.62182 13.1754 -0.215042 -13.4003 -19.3897 
25189 2 3.31878 -1.5892 13.8009 46.3822 189.049 98.6171 
25309 7 2.75445 4.55823 17.5351 4.85874 -2.05372 -8.81213 
22683 6 6.03932 0.34978 15.476 -5.78675 -10.5966 15.3575 
22644 3 6.82594 4.65631 15.1817 7.48374 -12.7187 9.09516 
25472 9 2.17523 3.29785 18.9961 2.10649 -0.483811 -119.771 
22651 7 5.144 0.0349895 15.7711 3.46642 0.0135516 -1.84637 
22650 7 6.26409 1.05667 16.1118 -2.17375 6.84873 2.35562 
22759 7 4.73124 4.31697 18.4879 4.07997 -2.35783 0.873039 
22959 9 6.00257 4.46816 15.8176 17.4906 3.869 1.66977 
22649 6 4.13999 4.2438 16.6864 -38.3175 14.92 -33.1657 
22684 7 3.74399 3.48082 16.1278 3.68632 9.89268 9.29454 
20023 6 6.39923 2.24928 17.5637 -19.1554 -16.4359 -22.9218 
22685 7 3.9263 4.98854 16.0352 0.23797 9.9642 14.0734 
20062 7 5.87337 3.06876 17.6862 1.0315 10.6651 2.42466 
22652 7 6.79504 -1.80535 15.9233 2.70988 -0.271632 -5.04852 
25201 6 -0.0957618 -0.0154635 18.6923 -14.2232 -10.3579 1.14746 
25237 7 0.684557 0.379514 18.2809 8.78496 2.19527 -4.64268 
25236 7 0.412375 -0.77671 19.0399 8.97391 0.0612501 0.499659 
20061 7 7.02255 2.44774 18.2567 -0.509224 2.56323 0.951862 
25312 7 -0.306637 4.40549 18.3644 3.41528 -0.154289 -7.90955 
22717 6 5.2497 4.75699 19.1708 -19.0993 -10.2579 -13.3708 
25346 7 0.00481326 10.7287 15.9754 6.88095 0.37848 -7.00627 
22687 7 5.3419 0.936196 18.5696 4.21384 10.2975 2.59321 
22760 7 5.24156 5.73468 19.0091 2.71086 11.0117 -6.02016 
20022 6 13.2275 0.528347 17.7033 -19.3029 -2.73043 -43.582 
20101 7 9.19807 0.796828 16.1381 -2.37253 0.71683 5.47398 
22931 9 9.46141 -0.903562 15.7513 1.70298 0.943705 14.2003 
22643 5 10.3472 2.57234 12.1955 -2.53419 -4.97884 -9.38406 
20083 1 12.0539 4.57824 12.2941 19.8939 11.3646 25.8109 
22642 5 7.78438 2.32799 12.6693 -1.61182 -8.28421 -18.2632 
22572 5 10.3915 -1.19034 12.4814 -0.258287 -7.17386 -5.71982 
22647 5 8.01803 -1.15376 13.3887 10.4082 -13.5016 -18.9198 
20029 1 12.4935 0.818447 12.5759 1.20266 10.1754 -9.72113 
20095 5 13.8672 2.81253 13.0198 -0.712528 -12.0727 -13.0303 
22637 2 9.23854 2.21284 13.1776 45.5347 79.1118 72.6738 
22565 2 9.47766 -0.798971 13.6553 36.168 40.3043 38.8777 
22641 4 9.6135 0.790931 13.697 -20.6273 6.12209 -23.4536 
22640 4 9.10375 3.21619 14.2882 -9.92418 -22.1483 -14.362 
20060 6 12.6965 1.02939 15.1233 -14.2919 -11.3995 -3.61865 
20025 7 12.4766 0.988166 16.0788 -0.153159 2.12028 0.732451 
22638 8 8.64825 4.50233 15.3803 20.6041 21.0234 -17.5215 
20024 7 13.5358 1.51107 15.1683 6.64548 4.54031 -6.0642 
22688 6 9.22591 4.07095 17.1677 -1.85781 -13.2424 11.6924 
20130 6 9.07371 0.955225 17.0899 -17.6334 -20.4252 -8.73806 
20016 5 13.8732 -1.10957 13.0216 1.96867 -14.5129 -19.9455 
20100 7 8.13885 1.33996 17.0941 19.4925 7.21107 -3.32514 
22967 7 8.50308 4.508 17.9099 3.92178 2.14508 -23.5754 
22571 3 9.92401 -1.38979 15.0013 -16.2565 -13.2756 15.8339 
20135 7 11.8107 0.43903 18.613 20.7879 4.61732 -4.85622 
20134 7 10.1867 0.456044 18.1262 3.13445 4.15951 -1.6135 
22955 7 9.44639 3.14074 17.5238 -2.93584 6.62926 -6.67857 
20063 7 13.6434 -0.355422 17.881 -1.48914 7.93761 -3.4514 
20098 7 11.0174 3.63974 18.2353 1.37348 3.1248 1.88167 
20064 7 13.7778 1.2462 18.1342 1.39816 20.0628 12.4393 
20051 3 14.5672 -1.36786 19.1408 -17.6112 -18.8621 22.7991 
20366 9 14.6102 3.5992 19.0062 -0.12318 3.93287 -43.577 
20096 6 10.8517 0.324326 18.9483 -19.6596 -19.3302 2.35794 
25303 3 -0.276444 8.17097 19.3178 9.36679 -21.7404 -0.637791 
25347 7 -0.259554 7.69769 16.6804 7.34897 2.636 0.935427 
22918 9 9.01942 -0.396557 19.0686 13.1469 2.43005 -16.8242 
17474 7 18.1013 -1.72339 15.7994 2.36259 10.4524 -3.5678 
20379 9 16.2497 2.39148 15.4853 19.4834 4.38173 35.6731 
20378 9 15.4007 0.0444891 14.8487 1.31413 52.0842 13.9256 
20012 2 15.2359 -1.61828 13.5115 6.31665 -56.4781 77.1188 
17469 5 19.9364 -1.30131 13.4326 -15.8753 -13.4574 -15.9508 
20017 5 16.2815 -1.21496 12.5395 4.36255 -1.52567 -5.84168 
20020 5 16.2894 2.4578 12.6312 -0.210064 -5.05924 -5.35403 
17477 1 18.4308 4.50707 12.7514 21.414 12.9585 52.9445 
17458 1 18.218 0.637135 12.871 47.3253 33.9989 20.2395 
17464 5 19.9587 2.61017 13.0923 0.051945 -12.5754 -11.9373 
20014 3 15.3481 -0.927596 14.9324 -20.1361 -4.41178 20.6833 
20013 2 15.2355 2.86552 13.6686 13.8593 -20.6604 66.1953 
20089 4 15.4847 4.41259 13.8828 -13.3477 14.6063 -18.8115 
17460 2 21.2934 2.30374 13.8302 64.33 -16.1769 94.3895 
17386 2 21.2555 -0.760946 14.0881 50.7297 185.89 38.7121 
20019 3 15.4469 2.10605 15.0243 -11.2296 -13.2541 31.9942 
17466 6 18.5715 0.291121 15.542 -8.98485 -2.74806 44.8865 
17494 7 18.2517 0.983812 16.2376 3.60812 18.0831 3.36934 
17493 7 19.4882 0.643492 15.3719 15.3496 4.26403 -1.98757 
17471 6 18.024 2.77471 17.0851 -15.8217 -11.0979 15.7015 
17510 7 18.4336 3.34632 16.3735 5.47083 8.71998 4.23039 
17509 7 18.7926 2.49907 17.6345 10.7461 -2.16063 -1.39417 
17463 4 21.2166 0.803669 14.1626 -20.569 -10.9169 -42.9704 
17508 6 18.2624 4.86792 15.2964 -19.6583 -12.2969 19.6248 
14959 7 20.7825 0.967248 17.9384 1.72503 3.14178 6.51792 
14960 7 21.2206 1.64752 16.5294 -5.3828 17.259 9.87315 
17391 3 21.5132 -1.17948 15.5241 -16.9957 -35.2464 -23.4962 
17825 9 21.3187 -0.399937 16.1187 -2.63712 11.4468 -95.791 
17462 3 21.3907 3.06575 15.1709 -17.6716 -27.0109 13.3952 
14918 6 21.4134 0.904204 17.1751 -8.62847 -21.605 8.79138 
17826 9 21.0702 3.9862 15.0526 -0.0812255 57.2396 9.33792 
17544 6 17.2854 4.84841 18.8521 -30.4743 -7.2364 19.0909 
17582 7 17.482 4.23369 18.0887 4.78654 14.2231 3.00888 
17457 7 15.9725 0.256453 18.7733 9.50504 4.94171 -2.58269 
17472 7 19.0728 5.41485 15.3724 10.7939 5.24918 -4.61801 
17456 7 17.054 1.44118 18.5662 5.56537 5.0198 -2.00333 
17503 6 16.7802 0.724625 19.163 -10.4357 -4.49129 -2.88465 
14905 7 21.8826 4.9598 18.5882 -6.71621 -4.23692 -7.59399 
17499 3 20.2732 2.42111 19.0992 -2.31081 -20.2003 8.23017 
17813 9 21.1626 2.8736 18.8743 23.5692 23.5265 34.9913 