ITEM: TIMESTEP
220000
ITEM: NUMBER OF ATOMS
25517
ITEM: BOX BOUNDS pp pp ff
-3.8959205201285124e-01 6.0088135642019459e+01
-1.9452389155355383e+00 5.9115524189537531e+01
-1.2206056431032383e+01 1.1390111600702880e+02
ITEM: ATOMS id type x y z v_stressx v_stressy v_stressz 
25292 7 5.89857 3.03966 7.5916 -2.41848 -8.48914 -6.08696 
25293 7 5.98077 1.53035 7.7064 -1.86274 -5.89379 -1.81376 
25252 6 5.35811 2.25094 7.51796 -6.37829 -3.25434 0.141545 
25287 5 0.61597 0.755495 10.7564 7.49139 -1.60778 4.7169 
25283 5 2.94291 4.2301 9.842 11.1307 6.55131 -13.1798 
25281 4 1.3887 2.44216 9.07367 -13.113 1.90311 -17.416 
25280 4 1.07853 5.00258 8.46007 -12.8754 -8.47743 -6.88798 
25277 2 1.45655 3.94107 9.49571 51.5725 39.2505 81.1731 
25215 5 2.99957 0.588718 9.72621 -14.7257 -10.1202 -12.4529 
25209 2 1.59287 0.935181 9.44522 7.59668 -56.7705 76.6838 
25188 1 4.8243 2.58953 9.97468 5.3089 1.22089 14.7736 
25214 3 0.796635 0.0137284 8.44439 -1.69593 -4.20479 1.52716 
25282 5 0.520916 4.37471 10.6565 -15.3691 -14.5704 -17.9834 
25458 9 1.40812 -0.435335 7.83607 0.0176088 2.06715 1.6968 
25206 1 4.52732 -1.17961 10.115 34.757 37.8862 20.6362 
22660 5 6.52822 0.875659 10.2203 -1.38376 -5.71056 -16.3796 
22735 5 6.623 4.87348 10.5536 2.41481 -9.13805 -14.6245 
25505 7 1.83983 5.65447 5.50835 -0.0554154 -0.159282 -0.296124 
22662 3 7.17647 4.29529 8.22411 -12.3262 -23.2649 -18.9432 
22658 3 7.30314 0.346889 7.89736 -15.0828 -15.2955 -11.7037 
22905 9 7.65252 -0.485879 7.46068 0.0250503 -0.413613 -4.47972 
22906 9 7.50322 4.57024 7.35908 -2.685 4.35068 9.80771 
20115 7 11.1372 2.292 6.49758 0.445387 -0.0033439 -1.14954 
22656 2 7.7059 0.365729 9.40584 22.519 74.0198 61.3798 
20116 7 12.1136 2.88755 7.40659 19.65 6.73617 2.62199 
20078 6 11.1398 2.86581 7.23657 -15.9188 -11.7366 1.70523 
20106 3 13.741 4.72985 7.46261 -15.7435 -11.0951 42.5225 
22657 2 7.60419 5.1024 9.41016 54.6573 -15.1861 23.4329 
20036 3 13.619 0.47741 7.57109 -16.5009 -19.5666 16.951 
20107 4 13.6664 2.6833 8.8298 -17.9071 -14.0507 -33.4962 
20104 2 13.8784 4.18168 8.97251 31.7417 36.6153 94.1082 
20031 2 13.7132 1.1448 8.96008 62.4456 163.872 13.5506 
20108 5 12.6966 4.70757 9.81807 14.6226 11.8679 1.67633 
20112 5 12.4932 0.846951 9.91178 10.8666 -0.346099 5.5038 
22654 1 10.4859 2.78478 9.68506 11.1764 10.1107 10.6747 
22661 5 9.03983 1.11007 9.56315 -7.52673 -6.50486 -16.1137 
22663 5 9.10858 4.7108 9.73761 4.30428 -12.8764 -15.4632 
22563 1 10.886 -1.13469 10.1589 -0.708505 -0.0914375 -23.6456 
22659 4 7.7627 -1.12896 9.68153 -9.39855 -34.7874 -34.5513 
22629 6 11.3751 -1.065 7.76545 -16.7515 5.05801 2.81716 
22669 7 11.9249 -0.207968 7.44815 1.30203 5.21507 -1.33911 
20352 9 13.8605 1.22514 6.87465 0.716138 12.5434 14.6431 
20189 7 14.2777 3.18994 6.51456 0.28792 13.5303 8.40562 
20353 9 14.543 5.23857 7.22704 7.76153 13.2153 16.7735 
20148 6 14.5671 2.45013 5.87332 0.144358 0.057101 0.0957004 
22740 7 11.2703 5.5881 6.8279 3.2804 1.48385 -1.15678 
22738 7 8.76742 5.41578 5.90114 -0.682294 0.695988 -1.35598 
22701 6 7.85394 5.37142 5.69312 0.457937 -0.309175 7.9457 
22739 7 7.886 4.86164 4.87022 -0.0110829 0.0202661 0.00832546 
22670 7 11.9327 -1.89861 7.72342 1.05042 1.6488 -5.40152 
20188 7 15.4435 2.20345 6.22553 0.814218 -0.136461 0.0782872 
20037 5 15.0057 0.565552 9.66218 -1.02986 -6.80357 -13.2134 
20118 7 17.8719 2.63796 7.70159 5.6661 -0.342033 -2.94338 
20117 7 17.6995 1.17882 7.44002 3.03489 2.55046 -4.67 
17799 9 19.455 -0.241526 7.33338 0.328854 6.61055 18.1036 
20077 6 17.1284 2.01775 7.60787 -23.333 2.39316 27.0003 
17484 3 19.536 4.02271 8.03155 -4.1777 -2.56344 -2.2765 
20109 5 15.1822 4.68195 9.53593 -5.83577 -7.34245 -17.4038 
17480 3 19.3808 0.510653 7.95906 -16.5255 -31.9492 10.7456 
17478 2 19.7385 0.13463 9.405 33.0647 34.2824 47.2147 
17479 2 19.7269 4.90401 9.32133 47.0377 113.549 60.4569 
17485 5 21.0972 4.45706 9.83859 4.91512 -16.1332 -16.1639 
17483 5 21.125 0.57616 9.92672 5.26544 -9.93843 -12.6785 
17482 5 18.7273 0.612358 10.4453 0.765222 -3.51252 -5.86521 
17560 5 18.5746 4.39351 10.2378 -1.14754 1.52752 -11.2167 
20011 1 16.7883 2.43064 10.1919 49.7085 46.3799 35.5733 
20028 1 16.5417 -1.33752 10.1131 23.6979 17.2486 9.96649 
17481 4 19.613 -1.37684 9.30614 -12.4784 -19.4506 -37.7592 
17800 9 20.2785 3.41394 7.96437 0.30138 -2.89038 -5.46681 
20002 6 16.2002 -1.21507 7.53432 -10.4793 -7.53694 13.447 
20044 7 15.5857 -0.449442 7.68688 4.35742 8.57931 -2.86233 
20043 7 16.3516 -1.12082 6.60323 0.282708 0.201711 -0.833853 
17377 6 19.8786 -1.6773 6.3322 0.247735 -0.139794 -0.0187975 
17415 7 20.5742 -1.92657 6.98281 2.86666 2.49852 2.22908 
14864 7 23.6314 3.83266 7.75133 5.5968 -4.67548 -1.35413 
14825 6 23.2988 2.969 7.82153 -9.31062 -3.85937 1.16035 
14863 7 24.1611 2.53617 7.90018 3.88861 -1.30501 -0.493276 
17476 1 22.5994 2.5974 10.2549 -65.803 -41.0362 58.1343 
14928 3 25.5679 4.59148 8.20809 -31.5313 -50.1834 -47.0496 
15246 9 24.7065 0.00657495 8.04332 8.00265 10.746 20.0107 
14856 3 25.5405 0.383335 8.16649 -12.6121 -14.7427 10.8337 
14929 4 25.6618 2.47021 9.27814 -18.0905 -35.1436 -33.8881 
14851 2 25.7726 0.935136 9.6021 20.8242 -189.376 73.932 
14926 2 25.8313 3.99121 9.61155 29.907 146.457 90.2108 
14857 5 27.172 0.513951 10.0212 -9.77669 -12.038 -20.5001 
14931 5 27.2703 4.30837 10.1061 -28.3162 -11.5131 -17.7192 
14832 1 28.9014 2.41808 10.4207 15.0506 12.0531 56.4693 
14930 5 24.8007 4.37565 10.6576 12.5187 -4.39758 -12.485 
14934 5 24.7275 0.511689 10.6576 4.51553 -4.00853 -0.307222 
17384 1 22.8636 -1.16741 10.5973 -1.37074 4.29439 -14.1064 
14848 1 28.7231 -1.43222 10.2624 14.7189 18.8647 -9.98191 
14898 6 29.1786 2.45721 7.88738 -13.6727 -15.3793 6.03856 
15247 9 26.3681 4.66526 7.72718 -1.6134 -1.08989 -15.2987 
14826 6 28.1456 -1.3901 7.71182 1.20859 -3.42224 26.6328 
14861 7 27.5228 -0.59177 7.7367 5.01067 5.84437 -2.26053 
14862 7 28.7608 -1.17174 6.9734 0.155478 0.0380563 -0.0612678 
17565 7 23.8543 5.62398 7.62904 12.5281 3.7447 -1.43946 
17491 7 23.3409 -0.830267 7.25909 0.0973187 0.0711198 -0.438079 
12347 6 29.4782 5.3719 8.00631 -15.1938 -7.25112 3.91996 
14939 7 29.2544 3.33895 7.63004 0.443593 -0.924273 -1.19803 
17492 7 24.1978 -1.77871 8.08715 8.20911 2.45454 -6.29568 
17450 6 23.2929 -1.42611 8.02021 -21.5768 -6.94451 19.0214 
25291 7 5.22591 6.53661 7.32751 1.18857 1.66746 -3.1263 
25290 7 3.82687 6.55555 6.86919 -0.696521 1.67223 -4.40557 
25253 6 4.33607 6.71227 7.63615 -9.56811 -11.6474 1.98244 
25517 7 1.84279 7.29014 5.50902 -0.0256591 -0.0551132 -0.552305 
25313 6 1.21101 6.45671 5.78137 6.04061 -5.40948 30.3551 
25362 7 1.19888 10.608 6.31952 -0.0156375 -0.00124505 -0.027897 
25275 1 4.36027 6.50413 10.1833 3.79432 12.7311 4.33123 
25278 8 0.639374 6.49188 7.63496 52.9891 31.9859 9.78514 
22958 9 3.89074 10.3239 7.2783 -3.47179 1.5256 0.22084 
22732 3 4.70032 10.3548 7.96195 2.40985 -12.6857 13.8299 
25359 5 0.701437 8.49354 11.0939 -9.65926 -10.2628 -16.8928 
25356 5 3.08021 12.146 10.2169 9.68942 -0.077625 -13.3482 
25355 5 0.535314 12.2845 10.6518 -2.56089 -5.64071 -8.49762 
25354 4 1.48185 10.2856 9.54639 -13.9179 13.6204 -27.4311 
25353 3 1.39194 12.6945 8.41831 -17.0021 -9.36029 3.23164 
25351 2 1.63225 11.8296 9.72046 40.5535 49.2691 68.3559 
25286 5 2.93236 8.28049 10.0288 -5.70383 -15.9724 -18.9808 
25285 4 0.892127 7.85648 8.74192 -20.8905 -18.482 -4.88618 
25279 2 1.49492 8.71367 9.83417 16.8346 97.7623 78.0051 
25259 1 4.86194 10.2149 10.3927 6.55809 9.29119 40.5051 
25327 6 1.60703 9.7444 6.34125 2.33175 1.22347 -0.735154 
25363 7 1.38635 9.50649 7.2315 0.49892 2.80751 1.26334 
22807 5 6.5607 12.2849 10.8694 -15.5167 -14.3831 -18.1306 
22730 5 6.65234 8.34528 10.5398 -4.49584 -14.6323 -13.0768 
22726 8 6.48614 10.4372 7.49213 -1.56695 17.9773 -26.3025 
22761 6 7.05704 10.8316 5.66761 1.74741 2.49705 6.83265 
22733 4 6.9844 11.7221 8.61372 -10.8822 -12.685 -2.29987 
22728 4 7.23016 9.05362 8.29312 -12.937 -20.2618 -5.54613 
22953 7 7.91026 10.1976 5.3838 -0.066149 0.100563 -0.651666 
22965 7 7.33207 11.8331 5.45166 -0.0480676 0.141914 -0.276643 
22741 7 11.5 7.01103 7.05421 2.60149 -0.0307475 -1.54448 
22700 6 10.8104 6.36788 7.23855 -16.0367 -2.12904 18.3138 
22636 1 10.9188 6.69179 9.82281 4.20872 9.48237 11.7778 
22729 4 7.48133 6.61374 9.11192 -11.3924 -8.51191 -27.7062 
22668 7 10.5831 8.59932 7.42923 1.90311 4.3559 -3.1806 
22725 2 7.70374 8.13304 9.39568 27.5777 31.6971 97.5147 
22727 2 7.53968 12.6129 9.75953 17.6824 133.372 80.3106 
22630 6 10.7174 9.56513 7.55044 -8.18325 0.70075 5.34999 
22667 7 11.6785 9.56 7.58776 1.26659 0.738006 -1.33627 
20110 3 13.3722 8.00482 7.87861 -11.0622 -1.13446 -3.703 
20176 4 13.3404 12.979 8.33811 -6.58868 -6.99418 -4.13001 
20177 4 13.5478 10.5013 8.95979 -6.32952 -0.292898 -16.3441 
20173 2 13.7057 11.9908 9.40771 33.818 -4.73095 77.6601 
20105 2 13.7244 8.93675 9.12343 -1.48871 6.90213 85.4421 
20178 5 12.5598 12.2564 10.4158 -7.63248 -12.4648 -22.6611 
20183 5 12.8988 8.51128 10.3587 -3.6264 -11.0599 -7.21263 
22734 5 8.97942 12.4092 10.1072 -12.5598 -12.6212 -17.4168 
22723 1 10.5486 10.4168 9.97488 -3.04953 4.15422 9.90357 
22731 5 9.11607 8.33188 9.85191 -15.6438 -24.3642 -22.1653 
20354 9 13.8366 7.1662 8.02076 -1.06354 -12.2884 -25.3981 
17489 7 15.3685 7.53149 7.27379 -6.19712 -2.26863 -3.77761 
17490 7 16.4114 7.08597 6.51817 -0.224907 0.0338215 -0.312446 
17451 6 15.9423 6.78743 7.29642 -18.7902 -17.2508 17.5162 
17555 4 19.5148 6.40419 9.24816 -10.9112 2.40382 -18.5273 
20102 1 16.4765 6.46221 9.86905 10.8441 0.193867 19.0998 
20179 5 15.0791 12.3713 9.86379 2.59202 3.70392 -11.566 
20111 5 15.0953 8.51182 9.52882 -26.3306 -13.9575 -15.0445 
17802 9 19.4832 11.878 7.51898 -0.107284 -0.0990216 0.172599 
17554 3 19.6317 8.68088 7.9737 -1.87162 -5.31554 6.18367 
17801 9 19.3812 9.57046 8.10065 0.635807 12.173 6.374 
17558 3 19.3121 11.5602 8.35726 -4.21832 -2.00472 -0.718132 
17552 2 19.7279 7.97853 9.40881 25.5448 58.196 60.3508 
17553 2 19.7446 12.5897 9.5152 43.1649 43.3693 69.3789 
17559 5 21.2085 12.1329 9.83297 6.88111 -0.485684 -10.555 
17557 5 21.1128 8.33065 9.93016 0.870007 -11.6954 -15.4849 
17556 5 18.49 8.44005 10.194 12.4828 -3.90961 -6.76086 
17631 5 18.754 12.2185 10.6826 2.168 -5.39916 -4.25655 
20084 1 16.8199 10.2664 10.3615 -11.0051 -3.97884 -1.16521 
17566 7 22.7737 6.49197 7.09029 0.0943351 0.0177953 0.05303 
17525 6 23.2369 6.30614 7.97014 -29.8967 -5.9539 16.6559 
15249 9 26.4199 12.3989 7.50271 0.843578 0.687087 0.263235 
14924 1 28.8784 6.30371 10.2599 24.475 19.9874 -6.58638 
17459 1 22.8153 6.36449 10.4136 -83.8547 -68.1506 30.5009 
17550 1 22.6813 10.1773 10.109 18.9742 17.7752 8.22285 
15248 9 25.0074 7.30471 8.25379 6.75972 8.85323 8.77361 
15002 3 25.5553 12.1132 7.86039 -4.81817 -8.78925 8.84834 
14932 3 25.8534 7.69566 8.37038 -4.70601 -4.17633 1.33461 
15003 4 25.6929 10.0578 9.40228 -9.21186 -5.87603 -23.2529 
15000 2 25.8234 11.5586 9.33827 29.8633 102.523 73.1361 
14927 2 25.9265 8.52626 9.67582 40.8317 66.861 73.4636 
15005 5 27.2586 12.0307 9.65026 -1.62587 -12.6765 -17.0583 
14933 5 27.3368 8.19806 10.2714 9.53335 -14.0835 -17.3347 
15004 5 24.794 12.1885 10.2281 1.21376 3.38652 -12.0876 
14907 1 29.0423 10.186 10.3202 23.5314 18.8264 22.0537 
15008 5 24.7476 8.17989 10.6591 15.6048 -0.620033 -3.33952 
14899 6 29.4402 9.94521 7.67407 -3.23298 0.0456672 5.32989 
17637 7 24.0129 13.1402 7.48134 1.60852 0.650447 -0.173392 
25427 5 0.471403 16.2254 10.9577 5.88791 -3.502 -4.09709 
25424 5 3.05777 19.7432 10.2643 -15.0287 -6.19078 -9.51796 
25423 5 0.62854 19.9386 10.7649 4.12265 -4.1089 -9.28961 
25422 4 1.53223 17.8586 9.5283 -9.82488 6.99426 -14.3046 
25421 3 1.35286 20.1653 8.46116 -3.22684 -2.62246 -0.149983 
25419 2 1.68921 19.4163 9.80763 -41.3123 140.087 64.7697 
25358 5 3.0433 15.9649 10.3935 6.01627 -1.00078 -11.5017 
25352 2 1.62447 16.359 9.9389 58.1004 1.61836 36.7399 
25333 1 4.76049 17.9652 10.8964 -6.23261 12.9863 -30.2175 
25357 3 1.27516 15.4524 8.77037 -12.467 -16.9233 18.1937 
25460 9 1.6173 15.8283 7.87293 0.103765 0.363086 4.19001 
25349 1 4.58657 14.1062 10.6957 6.80918 16.342 -5.41166 
22803 5 6.49129 16.0975 10.8756 1.34174 -0.586049 -0.00770159 
22875 5 6.46084 20.071 11.1158 20.2454 7.98425 13.8904 
25459 9 1.48999 13.6574 8.56205 -1.27308 4.39048 -4.02346 
22801 3 7.03055 16.5942 8.55987 -2.28107 -6.96688 3.95051 
2179 7 -0.387305 20.8468 8.22815 14.395 2.29588 -6.28157 
22805 3 7.32975 19.3599 8.91011 -8.62795 -8.77591 25.1632 
22908 9 7.54595 19.9046 8.12021 0.00909384 0.259589 6.54988 
22774 6 7.84223 14.1301 6.46407 2.02241 1.27286 1.93136 
22907 9 7.21638 17.5067 8.66763 -0.0411402 20.2929 1.96168 
22800 2 7.69826 20.1918 10.1825 71.7007 58.6029 38.6961 
22810 7 9.52718 17.6319 7.67339 -2.04578 0.951596 -2.02603 
22775 6 10.3724 17.5576 8.1234 -17.9811 -9.06867 6.55823 
22811 7 11.0269 17.744 7.42304 6.09 1.05887 -1.22153 
20249 3 13.6146 20.1923 8.5115 -17.526 -15.9777 19.8145 
22799 2 7.50164 15.6895 9.76752 2.32908 21.0599 73.1183 
20181 4 13.1648 15.598 8.7498 -9.65189 -32.0685 -11.7255 
20250 4 13.59 17.8559 9.69511 -14.0254 6.63577 -27.1077 
20247 2 13.6446 19.4223 9.89672 3.07612 28.7537 66.1223 
20175 2 13.7411 16.3389 9.95052 45.5089 116.498 86.8338 
20255 5 12.7826 16.0392 11.1348 -2.8217 -11.4714 -16.155 
20251 5 12.5994 19.887 10.8751 -0.685784 -0.239103 11.0278 
22797 1 10.5866 17.8329 10.6706 3.39897 -1.47805 24.3008 
22804 5 8.85928 16.0465 10.2629 -4.69177 -10.9938 -14.4567 
22806 5 9.15709 19.6726 10.6518 26.284 -12.5016 -11.7841 
20209 6 12.874 15.0323 5.7533 0.471482 -0.364964 1.52924 
20174 8 12.7095 14.4625 7.54514 27.3777 11.0796 -53.7867 
22802 4 7.35344 14.1712 9.46207 -21.1055 9.31419 -29.2119 
22707 1 10.7485 14.2517 10.2767 12.2053 10.636 4.21359 
20180 3 10.8086 14.0423 7.95232 18.1739 -8.89486 4.96179 
20260 7 13.0324 18.8856 6.99744 0.136375 1.33531 1.26631 
20261 7 12.9162 17.3666 7.33817 -0.522619 10.6482 5.63464 
20401 7 13.4229 15.9899 5.62814 -0.16077 0.312582 -1.28455 
20406 9 10.0189 14.4108 7.4707 -1.25862 2.85677 -2.43007 
20413 7 11.9327 15.1884 5.26927 -0.0682957 -0.0247035 -0.439329 
20222 6 12.7014 18.0477 6.67459 -0.755683 0.706085 -0.980788 
22813 7 7.7456 15.0607 6.62462 -0.070995 -0.0488271 0.0591607 
22812 7 7.44152 13.8113 7.30537 0.74028 1.42664 6.44957 
17861 7 18.0327 18.1656 5.18632 -0.0414418 -0.0257599 -0.195596 
17849 7 19.1146 19.332 5.5722 -0.052361 0.152644 -0.565833 
17657 6 18.7692 18.3451 5.88217 -4.87218 -2.66059 15.2795 
20252 5 14.9691 19.7344 10.5394 -8.68648 -13.5255 -17.8116 
20182 5 15.2166 16.0409 10.213 -4.06934 -20.5541 -13.8395 
17622 8 18.5634 18.0799 7.75046 32.3062 27.8797 -13.2309 
17854 9 15.9449 18.6012 8.0719 -0.32126 2.01025 -3.25 
17628 3 16.7563 18.0742 8.25458 4.07286 -9.95265 9.32765 
17624 4 19.3217 16.6826 8.46567 -7.87633 -11.5526 -4.05238 
17629 4 18.9827 19.4332 8.85904 -13.7544 -12.2807 0.858557 
17621 2 19.6951 15.6526 9.54627 46.6956 95.6473 81.9407 
17623 2 19.5501 20.2671 10.0023 54.233 25.7699 75.5177 
17630 5 21.0316 19.7719 10.2793 12.4663 -2.55951 -15.185 
17627 5 21.1919 15.89 9.96206 1.09536 -17.8162 -16.3315 
20155 1 16.8424 17.9752 10.6946 1.32243 10.4498 -30.3335 
17626 5 18.7672 15.8963 10.7355 -8.5286 -8.96229 -11.3452 
20171 1 16.7158 14.1373 10.3208 5.35823 6.66569 -17.0026 
17625 4 19.606 14.0957 9.12525 -6.1581 7.87512 -12.0028 
17564 7 21.4906 17.2833 7.58657 -0.570364 1.56541 -1.1364 
17703 5 18.6795 20.0258 11.2014 -15.3493 -12.4244 -21.2719 
17709 7 19.905 20.6273 7.34679 2.91453 4.92916 4.24785 
20259 7 15.568 20.8847 8.4035 12.1551 3.52788 -2.45288 
17526 6 22.4132 17.452 7.70597 -7.65091 -6.71162 17.739 
17563 7 22.8092 16.6576 7.3521 0.258804 0.352206 -1.88487 
17619 1 22.5682 17.9268 10.3236 11.0876 12.7189 -40.2305 
15250 9 25.4259 16.554 7.3496 3.2033 4.20433 70.4468 
15006 3 25.6058 15.7572 7.92658 -17.1771 -12.379 55.2092 
15072 4 25.3173 20.4252 8.40544 -12.9512 -7.89908 -2.81041 
15073 4 25.9599 17.9542 9.15621 -15.7803 6.10653 -35.021 
15069 2 25.8295 19.4844 9.52152 47.1136 196.463 67.4447 
15075 5 27.2671 19.8707 9.91392 4.99638 -4.14184 -14.4261 
15001 2 25.8934 16.4473 9.39988 31.4126 22.7015 33.6913 
15007 5 27.2951 15.9854 9.7832 -0.686876 -10.6359 -16.1005 
14980 1 29.1857 17.8209 10.1444 -12.6345 -20.315 14.3284 
15074 5 24.8028 19.6389 10.6176 -6.09016 -5.43045 -19.2101 
15079 5 24.8396 16.1163 10.4638 8.57373 -3.47784 0.962096 
12533 7 25.4571 18.3754 7.23091 -0.424859 4.44019 6.03215 
17532 1 22.9834 14.1035 10.1761 9.8404 12.2896 8.46532 
14998 1 28.6373 13.9834 10.0874 20.3292 24.826 13.6666 
12492 6 25.1645 17.9196 6.43544 -1.27406 -1.71391 -0.944938 
12532 7 24.2391 17.8074 6.45162 -0.0696668 0.0107531 -0.223207 
17636 7 24.2982 14.6547 7.77674 3.09701 -4.68395 -4.47629 
17597 6 27.3956 19.7327 6.47718 -16.3461 -1.05681 1.00733 
17635 7 27.0344 19.9354 7.31032 6.34675 1.16842 -2.35316 
17596 6 23.5563 13.9987 7.66239 -11.3661 -1.58987 4.42681 
14974 6 28.7308 14.0837 7.53935 -5.82005 -10.9359 7.32744 
17634 7 26.9707 18.9124 6.11254 0.288374 0.569819 -0.152062 
15084 7 28.6931 18.2675 6.90767 0.597451 2.76718 -1.52228 
15012 7 28.1952 14.867 7.30744 1.78045 1.80554 -1.73523 
15044 6 29.2899 17.8272 7.55162 -18.5405 -15.3552 14.0684 
15011 7 29.5706 14.1102 6.99075 5.05499 0.881844 -0.275461 
25461 9 1.63963 21.1191 8.56579 -0.434437 9.03745 -5.97441 
25417 1 4.459 21.7465 10.9217 -17.0119 -19.3803 -19.6864 
24923 5 0.754769 27.5218 10.9484 5.8691 1.95193 -1.8376 
25425 3 1.35108 22.98 8.77836 -10.5459 -8.17554 18.4767 
24927 5 0.559259 23.61 11.1153 15.4701 -1.76896 8.00963 
25426 5 3.10363 23.8017 10.4009 3.54849 -9.25393 -9.28989 
25420 2 1.64879 23.9265 10.0018 36.1229 98.2418 57.9892 
25401 1 4.97038 25.5329 10.7242 12.0376 5.10515 3.91506 
24924 5 3.18735 27.1766 10.4054 -6.11719 -6.18222 -13.8241 
24922 4 1.38256 25.4386 9.75254 -16.5734 10.2442 -17.0004 
24919 2 1.7823 26.9563 9.95451 1.55683 144.963 60.8036 
24921 3 1.55556 27.7248 8.56562 -3.24822 -0.938006 8.35476 
25462 9 1.60156 23.3783 7.96981 -0.056018 0.116744 1.81481 
22871 5 6.64021 23.6959 10.9095 4.92451 -4.74305 -4.66293 
25451 9 2.36751 27.8615 8.13061 0.0526577 0.481877 1.55237 
22375 5 6.78156 27.3777 11.2762 1.81954 -4.01641 -5.67669 
20355 9 13.7553 21.1037 8.67011 -2.61428 21.323 -0.900502 
22873 3 7.36095 26.8242 8.94079 -1.85357 -2.83642 22.5962 
22910 9 7.83453 27.1872 8.16884 0.0178822 0.301205 5.20665 
22881 7 10.5673 22.2037 7.78641 0.17538 0.149801 -0.59153 
22880 7 12.0072 21.7432 8.22322 12.0902 4.44031 -4.54397 
22869 3 7.56442 24.0265 8.5961 -0.860874 -1.2955 0.697051 
22842 6 11.0399 21.8185 8.50693 -11.5873 -8.66319 2.4942 
22909 9 7.42422 24.9915 8.72358 -0.285893 9.4836 -0.588588 
22870 4 7.80675 21.6814 9.76784 -9.91015 13.0673 -14.6033 
22781 1 10.8959 21.6885 11.0129 -26.5585 -19.4422 19.5428 
22868 2 7.76545 27.7412 10.1816 38.5265 97.9459 38.6734 
22867 2 7.78902 23.2324 9.92461 54.4712 190.079 71.1506 
22381 7 12.0152 26.341 8.4485 11.0979 9.19223 -1.36976 
20253 3 13.4682 23.4016 8.82795 -29.4367 -27.826 6.81085 
22380 7 10.8121 26.2531 7.54966 0.0741623 0.106052 0.101736 
22342 6 11.2091 25.8188 8.3988 -19.3811 -2.76939 29.6714 
20317 3 13.3219 27.8427 9.08682 -10.3835 -13.1811 -8.07557 
20248 2 13.7696 24.0294 10.2263 7.902 4.01785 109.087 
20318 4 13.624 25.5447 10.0164 -29.1565 -18.7333 -42.8826 
20315 2 13.7788 27.0543 10.3348 51.7998 -14.4829 80.8432 
22865 1 10.6865 25.3992 10.9226 12.8099 11.1462 30.2638 
22872 5 9.17462 23.6871 10.462 5.20968 -15.6813 -13.8639 
22874 5 9.24947 27.6706 10.5948 6.84974 -9.6607 -9.56433 
20356 9 12.5954 23.6209 8.49206 10.3169 3.89182 -9.85901 
25431 7 14.1509 26.52 7.83751 1.08311 4.74173 6.81751 
20323 5 12.8525 23.6161 11.429 2.29556 -7.87978 1.3468 
25430 7 14.093 24.9955 7.86813 1.71095 4.76377 10.5837 
25395 6 14.4016 25.7329 7.27378 -0.140256 0.0903409 -0.166872 
20258 7 15.2294 22.3163 8.12146 1.34149 0.132303 -1.47307 
20223 6 16.0015 21.7513 8.2238 -7.27849 -1.23978 9.27109 
20245 1 16.5342 21.695 10.8038 16.4718 21.1017 22.5692 
17698 4 19.4354 21.7483 9.56107 -12.1385 -3.94244 -29.0491 
20320 5 15.2214 27.4242 10.856 4.57943 -11.1477 -14.3197 
20254 5 15.1801 23.5949 10.561 -15.8774 -11.4787 -20.2412 
20329 7 17.2434 26.6466 8.28058 4.01908 3.19835 -3.58932 
20328 7 16.0419 25.8023 7.61998 1.70693 -0.0132201 -0.059463 
17803 9 18.6355 24.4714 8.19816 9.13008 9.21803 -0.673793 
20290 6 16.6573 25.8385 8.42977 -27.2043 -4.61823 8.02464 
17697 3 19.4666 23.9299 8.24968 -7.42931 -15.4849 7.69929 
17701 3 18.7572 27.5768 9.07536 -11.5185 -29.5558 -3.70576 
17695 2 19.6311 23.298 9.64847 1.84228 5.75102 79.9299 
17696 2 19.6976 27.9701 10.2409 34.2616 100.605 91.0219 
17700 5 20.9899 23.6351 10.1729 -17.4243 -7.59479 -19.186 
17702 5 21.0953 27.3466 10.1236 7.78209 -13.55 -20.7654 
17699 5 18.7076 23.7838 10.7613 -3.41654 -4.3563 -0.288687 
20229 1 17.0048 25.6018 10.9426 16.8666 14.7782 -51.0486 
17708 7 20.0702 22.1005 7.0657 -0.239549 1.39804 0.758492 
17670 6 20.1319 21.2549 6.64674 -0.749693 0.852874 -1.23726 
17707 7 20.7868 25.2363 7.6314 4.68496 4.91866 -0.0683801 
17706 7 21.1787 26.5559 8.43819 0.152579 6.51349 6.89708 
17671 6 21.5933 25.7538 7.94146 -0.43601 -4.79503 5.17022 
17804 9 18.1596 28.2261 8.79174 4.32915 -0.344368 -2.98013 
15302 9 22.12 22.0167 7.2663 -10.7493 2.28456 -0.624301 
15082 7 28.9341 21.4367 6.98265 -0.121808 1.91243 -3.04958 
15309 7 26.1711 21.1856 5.56242 -0.0510153 0.354403 -0.5805 
15297 7 25.7773 22.9358 5.36905 0.0250982 0.422217 0.0402715 
15076 3 22.8653 21.7306 7.945 5.17028 -10.2741 6.79642 
15105 6 25.4296 21.9972 5.7434 2.50323 2.78707 8.72675 
15067 1 28.5009 21.8246 10.3102 6.90024 13.3959 21.5744 
17603 1 22.8719 21.8054 10.3091 41.8547 31.1019 65.4323 
15070 8 24.6898 21.8654 7.53391 8.6063 22.0643 -5.61583 
15157 7 24.761 24.7113 6.5409 0.098933 1.43519 -2.23062 
17693 1 22.4585 25.6458 10.3024 35.371 46.8946 67.3864 
15118 6 24.3516 25.0692 5.80024 0.215242 -0.0171527 -0.078285 
15156 7 23.4675 25.4068 6.08223 0.348395 0.0661676 -0.0163143 
12750 9 28.7793 27.0604 8.02173 -18.1617 -1.3282 -3.49647 
15145 3 25.8709 28.1424 8.32624 -25.1307 -10.0712 23.9006 
15077 4 25.2347 23.1977 8.50469 -14.8355 -21.7925 -11.9161 
15146 4 25.5466 25.6818 9.29943 -7.793 17.8531 -15.8675 
15143 2 25.8227 27.2278 9.63665 33.8314 57.9394 42.4809 
15071 2 25.6377 24.1622 9.58877 43.0242 137.691 70.2705 
15078 5 27.0823 23.775 9.8664 3.40096 -1.5802 -12.1733 
15148 5 27.2019 27.5255 10.2775 11.3758 -13.3806 -15.8504 
15051 1 28.9278 25.6837 10.4438 0.364644 13.5383 42.1716 
15147 5 24.7278 27.7419 10.5663 3.56512 -1.93366 -8.21036 
12524 3 29.1596 26.0649 8.01414 -11.2653 -1.31523 8.86891 
15045 6 29.2043 21.7754 7.82857 -18.5145 -10.9758 5.03266 
15251 9 25.5134 27.6474 7.63837 -0.0785557 -0.292347 15.5515 
15151 5 24.6677 23.8201 10.7274 -4.88485 -8.14629 -14.9781 
25272 7 0.495915 3.96835 15.9689 7.24111 -0.275145 3.35379 
25198 5 4.5419 2.55475 12.6561 -17.2009 -9.6319 -10.691 
25195 5 4.3158 -1.09258 12.7632 -0.643492 -3.27428 3.48397 
25511 9 -0.00386585 1.22803 16.25 -20.8782 4.17771 -2.19648 
22635 1 6.05896 0.692999 12.8525 -33.2467 -11.0721 -4.31621 
25268 5 2.06322 2.89899 12.9931 0.387991 -10.2712 -21.3138 
25258 1 0.250924 4.4912 12.7638 8.39226 5.73641 -1.78614 
25207 1 0.476342 0.786529 13.0733 14.284 39.6158 33.0763 
25191 2 3.47612 3.03985 13.5769 21.1647 77.7592 61.7941 
25263 4 3.57926 4.53329 13.9916 -26.5189 0.912995 -26.7494 
25197 4 3.26023 2.0922 14.7531 -16.4335 -30.2558 -19.1119 
25192 4 3.04502 -0.482259 14.848 -7.51069 -8.3412 -0.225068 
25196 3 0.747524 0.955088 15.5644 -3.99359 -15.9624 28.1819 
25190 8 2.55679 0.942201 15.8709 -49.0141 8.70357 -65.4512 
25240 6 3.56204 1.16783 17.4913 2.28708 -1.86152 4.43562 
25519 7 3.12126 0.504412 18.3479 4.6212 11.0606 -5.65163 
25507 7 3.5566 2.11706 17.9596 -10.1062 -9.45379 -36.012 
22649 6 4.24255 4.26236 17.0459 -27.6225 -8.61978 -27.0736 
25308 6 -0.0507013 4.36788 15.268 -35.8602 -1.79845 -4.19378 
25270 6 1.58735 3.61219 17.6085 -22.4853 7.97603 -11.4504 
25310 7 1.81856 2.95986 18.2613 -1.39587 -2.60506 0.983259 
22655 1 6.37544 4.67075 12.8239 -2.69621 6.33308 -7.38814 
25194 5 1.89442 -1.62182 13.1754 -0.358211 -13.927 -18.0178 
25189 2 3.31878 -1.5892 13.8009 46.9652 24.3942 88.3499 
25309 7 2.4035 4.12066 17.4501 9.56012 -1.40226 -0.0594708 
22683 6 6.24504 1.00946 15.4427 -9.35278 -3.9252 20.7273 
22684 7 3.92955 3.56427 16.4404 -0.523726 -4.87045 8.7983 
22644 3 6.87583 4.23864 15.0455 12.8782 -15.5003 2.20788 
22759 7 4.85415 4.74212 18.647 3.61356 -0.440675 5.26058 
22959 9 6.20409 3.96113 15.7911 -15.8333 3.42929 1.689 
22685 7 4.26201 4.9239 16.3565 0.113093 -2.13347 6.14237 
22651 7 6.79766 1.75379 15.8004 2.51323 5.32764 4.12079 
20062 7 6.47469 1.53166 18.389 6.9669 13.1058 0.199006 
20061 7 6.16805 3.04996 18.4214 11.1311 7.87009 1.93923 
22760 7 6.29554 5.22766 19.1049 8.18207 2.97438 -3.97524 
22650 7 5.84664 0.788163 16.3288 5.21528 -0.0609946 7.88032 
24911 6 -0.146464 23.3616 18.8377 -12.2736 -8.58178 5.12052 
20023 6 6.87809 2.43096 18.0868 -17.0564 14.6212 -13.0251 
22652 7 6.82244 -1.55458 16.2701 4.19719 1.76792 -1.84042 
25236 7 0.337403 0.662282 18.391 0.192324 3.363 -4.51165 
25311 7 0.0770768 4.4046 18.6312 14.7799 2.13876 -1.76031 
25471 9 2.64978 -1.75103 18.9562 0.385461 -0.648319 44.2476 
12551 7 28.2651 24.5798 18.8747 31.7801 1.79748 0.472507 
20099 7 10.8525 3.75394 18.8962 -3.29088 1.54674 -6.25202 
20022 6 13.7069 2.07043 17.6196 -14.9155 -16.7794 -11.7957 
20101 7 8.4842 0.791528 17.0335 -2.21422 3.44846 0.245824 
22931 9 9.48972 -0.642902 15.7311 2.43135 4.9452 -83.6187 
22643 5 10.3472 2.57234 12.1955 -2.68306 -3.74219 -8.18782 
20083 1 12.0539 4.57824 12.2941 25.1573 14.4959 24.2617 
22642 5 7.78438 2.32799 12.6693 -2.04026 -8.49399 -21.5772 
22572 5 10.3915 -1.19034 12.4814 -3.90432 -8.45398 -10.0145 
22647 5 8.01803 -1.15376 13.3887 6.12216 -13.7598 -19.6539 
20029 1 12.4935 0.818447 12.5759 2.51443 8.24243 -9.03492 
20095 5 13.8672 2.81253 13.0198 -10.2476 -10.9746 -12.4409 
22637 2 9.23854 2.21284 13.1776 47.0174 -40.9839 69.8276 
22565 2 9.47766 -0.798971 13.6553 25.8777 71.3071 56.0816 
22641 4 9.6135 0.790931 13.697 -28.5641 -17.011 -30.2395 
22640 4 9.10375 3.21619 14.2882 -14.8459 -24.3928 -16.558 
20060 6 12.1149 0.625872 15.1629 -25.101 -8.48965 9.05041 
20025 7 12.6246 -0.196516 15.2808 3.25016 0.459486 -3.82202 
22638 8 8.71873 4.50366 15.3871 2.97747 6.31698 -29.1581 
20024 7 11.2081 0.404089 15.0567 12.0737 4.79821 -0.900131 
22688 6 9.44988 4.12752 17.1451 -1.98684 -5.55776 18.9796 
20130 6 8.95072 -0.0205199 17.2735 20.6557 -13.8234 10.1789 
20016 5 13.8732 -1.10957 13.0216 3.95308 -16.3715 -20.4816 
20100 7 9.79895 0.359532 17.6171 4.91297 2.2561 0.348843 
22967 7 8.78261 3.47923 17.7443 1.91318 -4.78845 -21.6498 
22571 3 9.86388 -1.2771 15.0853 -25.2005 -19.571 -17.2865 
20064 7 14.2502 2.41758 16.91 -5.30954 -1.57668 2.30931 
20063 7 13.1623 1.57314 17.0272 -5.11831 -3.15525 -1.7771 
22955 7 9.55451 4.88278 17.8573 -1.08234 -2.44946 -6.73311 
22918 9 8.83434 -0.991128 18.7286 0.674885 12.5789 104.492 
20096 6 11.8795 0.204926 18.9878 -12.6519 -0.547291 4.86893 
20098 7 12.2647 3.51817 18.5582 4.24112 4.79838 1.88539 
20135 7 12.607 0.763947 18.5137 15.0316 7.37894 -1.22807 
22919 9 7.9929 2.73865 19.1474 17.4639 16.9849 111.083 
20367 9 13.4894 5.18332 18.8146 -7.25473 -3.13225 -29.5033 
20134 7 12.4206 -0.557413 19.3477 8.25472 4.02498 4.89611 
20051 3 14.6189 -1.26703 19.25 -19.4605 -35.3043 -2.80631 
20131 6 11.6876 3.97949 19.2461 -18.3372 -9.27395 22.7786 
20123 3 14.2716 5.60071 19.1013 -28.9842 -30.7503 -16.6783 
24950 7 -0.267928 22.9049 17.9936 0.305299 1.72486 0.0428482 
20379 9 16.5222 1.80336 14.9569 8.23905 7.35073 -10.062 
17813 9 21.1271 1.62721 18.596 3.30939 14.6347 22.6101 
20378 9 15.4007 0.0444891 14.8487 1.14404 67.7393 25.6991 
20012 2 15.2359 -1.61828 13.5115 8.04486 129.302 77.437 
17469 5 19.9364 -1.30131 13.4326 -11.0554 -11.5578 -13.2912 
20017 5 16.2815 -1.21496 12.5395 9.01511 -0.829934 -8.00723 
20020 5 16.2894 2.4578 12.6312 -3.83145 -5.52776 -13.4181 
17477 1 18.4308 4.50707 12.7514 39.5848 34.1804 59.2344 
17458 1 18.218 0.637135 12.871 50.1897 36.872 16.8254 
17464 5 19.9587 2.61017 13.0923 -5.76982 -11.3327 -14.4495 
20014 3 15.3481 -0.927596 14.9324 -16.1767 -8.13648 25.9818 
20013 2 15.2355 2.86552 13.6686 11.4028 -18.9598 64.2031 
20089 4 15.4847 4.41259 13.8828 -11.3436 -2.52359 -18.6172 
17460 2 21.2934 2.30374 13.8302 62.1407 52.496 100.386 
17386 2 21.2555 -0.760946 14.0881 53.2186 145.736 59.7387 
20019 3 15.5335 1.91464 14.8717 -7.3076 -12.7393 -3.9922 
17466 6 17.8415 0.577169 15.4828 -33.3476 -12.3143 27.5714 
17494 7 17.7094 -0.383801 15.6839 5.32294 7.97429 -7.07828 
17493 7 18.2694 0.96778 16.3075 8.36466 11.15 0.79924 
17471 6 19.0353 2.38444 16.933 -31.7232 -19.2296 23.0337 
17510 7 19.8259 2.34671 16.3994 7.37735 1.17261 -4.00541 
17509 7 19.4145 2.16291 17.8828 12.0716 2.75876 25.6174 
17463 4 21.2166 0.803669 14.1626 -15.7371 -6.04727 -31.7569 
17508 6 18.506 4.82216 15.3167 -9.96016 -1.56896 12.3588 
17473 7 18.8641 4.09305 15.9265 5.86721 10.629 1.67709 
14959 7 20.537 0.0374802 17.2253 -0.734472 3.75154 -0.541007 
14960 7 21.3422 1.13964 16.55 -4.24879 5.96893 3.44609 
17391 3 21.5371 -1.40081 15.4825 -11.8321 -37.0365 -9.19366 
17825 9 21.5926 -0.692632 16.1196 -7.20328 -1.89828 -48.3425 
17462 3 21.4316 3.05803 15.1983 -26.3844 -25.1453 12.0339 
14918 6 21.3849 0.522449 17.2659 -0.613783 -40.911 -9.02321 
17583 7 16.3898 4.5769 18.2283 3.22193 2.36331 -0.814714 
17826 9 21.3702 4.01342 15.0421 -1.55342 11.6652 -4.80505 
17544 6 17.2141 4.34793 18.6717 -19.6789 -9.26084 5.66449 
17582 7 17.5241 3.73094 17.956 6.4335 6.58512 3.30685 
17456 7 16.0547 0.0174169 19.0976 10.0364 2.50694 -2.68259 
17457 7 16.5858 1.50303 19.0406 10.5662 5.81829 -2.31215 
17472 7 19.3238 5.403 15.3111 8.93649 -2.57543 -3.31991 
17499 3 20.7835 2.37554 19.1494 -11.3044 -17.3131 -2.93567 
17503 6 16.8995 0.562609 19.1135 -22.2229 -3.88576 -4.65014 