ITEM: TIMESTEP
10000
ITEM: NUMBER OF ATOMS
25520
ITEM: BOX BOUNDS pp pp ff
-3.8959205201285124e-01 6.0088135642019459e+01
-1.9452389155355383e+00 5.9115524189537531e+01
-1.2206056431032383e+01 1.1390111600702880e+02
ITEM: ATOMS id type x y z v_stressx v_stressy v_stressz 
25292 7 5.89857 3.03966 7.5916 -2.49451 -8.53317 -6.28436 
25293 7 5.98077 1.53035 7.7064 -1.92435 -5.93668 -1.95767 
25252 6 5.35811 2.25094 7.51796 -6.33469 -3.22115 0.238579 
25287 5 0.61597 0.755495 10.7564 7.90806 -1.39098 5.15254 
25283 5 2.94291 4.2301 9.842 11.3293 6.62564 -13.0491 
25281 4 1.3887 2.44216 9.07367 -13.0081 2.08709 -16.9132 
25280 4 1.07853 5.00258 8.46007 -12.5382 -8.47627 -6.7411 
25277 2 1.45655 3.94107 9.49571 50.3178 37.5605 79.759 
25215 5 2.99957 0.588718 9.72621 -14.4314 -9.90182 -11.7556 
25209 2 1.59287 0.935181 9.44522 5.60838 -57.8917 73.739 
25188 1 4.8243 2.58953 9.97468 5.05018 0.652927 14.9263 
25214 3 0.796635 0.0137284 8.44439 -1.98805 -4.40731 2.00948 
25282 5 0.520916 4.37471 10.6565 -15.0177 -14.4468 -18.7977 
25458 9 1.40812 -0.435335 7.83607 0.0141424 2.06545 1.69265 
25206 1 4.52732 -1.17961 10.115 34.6181 37.8797 20.253 
22660 5 6.52822 0.875659 10.2203 -1.27034 -5.39234 -16.1658 
22735 5 6.623 4.87348 10.5536 2.1475 -9.27479 -13.7161 
25505 7 1.83983 5.65447 5.50835 -0.0552664 -0.158468 -0.296645 
22662 3 7.17647 4.29529 8.22411 -11.7783 -23.0545 -18.4069 
22658 3 7.30314 0.346889 7.89736 -14.8254 -15.0508 -11.2558 
22905 9 7.65252 -0.485879 7.46068 0.0164273 -0.420698 -4.48875 
22906 9 7.50322 4.57024 7.35908 -2.82589 4.28333 9.62614 
20115 7 11.1372 2.292 6.49758 0.440749 -0.0123372 -1.1722 
22656 2 7.7059 0.365729 9.40584 21.8683 73.4754 62.9466 
20116 7 12.1136 2.88755 7.40659 19.5614 6.62468 2.51008 
20078 6 11.1398 2.86581 7.23657 -15.8139 -11.5155 2.06389 
20106 3 13.741 4.72985 7.46261 -15.539 -10.8483 42.2924 
22657 2 7.60419 5.1024 9.41016 52.4718 -16.6212 19.2335 
20036 3 13.619 0.47741 7.57109 -16.3235 -19.4338 16.7155 
20107 4 13.6664 2.6833 8.8298 -17.8021 -14.1763 -34.4333 
20104 2 13.8784 4.18168 8.97251 30.8699 35.9417 94.5068 
20031 2 13.7132 1.1448 8.96008 62.1189 163.904 15.617 
20108 5 12.6966 4.70757 9.81807 14.8679 12.0387 1.34451 
20112 5 12.4932 0.846951 9.91178 11.1981 -0.0461089 7.50352 
22654 1 10.4859 2.78478 9.68506 10.9796 10.0864 12.1821 
22661 5 9.03983 1.11007 9.56315 -7.43306 -6.39848 -16.5678 
22663 5 9.10858 4.7108 9.73761 4.42912 -12.7688 -15.5429 
22563 1 10.886 -1.13469 10.1589 -1.19592 -0.780127 -24.2636 
22659 4 7.7627 -1.12896 9.68153 -9.31341 -34.7445 -34.8524 
22629 6 11.3751 -1.065 7.76545 -16.6843 5.14814 2.50818 
22669 7 11.9249 -0.207968 7.44815 1.27457 5.19228 -1.28776 
20352 9 13.8605 1.22514 6.87465 0.655256 12.5016 14.6012 
20189 7 14.2777 3.18994 6.51456 0.22917 13.4726 8.28073 
20353 9 14.543 5.23857 7.22704 7.71435 13.1625 16.8181 
20148 6 14.5671 2.45013 5.87332 0.146102 0.058968 0.104029 
22740 7 11.2703 5.5881 6.8279 3.27543 1.46382 -1.19546 
22738 7 8.76742 5.41578 5.90114 -0.703278 0.685779 -1.36363 
22701 6 7.85394 5.37142 5.69312 0.533885 -0.267631 7.89642 
22739 7 7.886 4.86164 4.87022 -0.0113689 0.0201884 0.00855732 
22670 7 11.9327 -1.89861 7.72342 1.02082 1.61111 -5.28418 
20188 7 15.4435 2.20345 6.22553 0.805424 -0.142968 0.0557523 
20037 5 15.0057 0.565552 9.66218 -0.98028 -6.80557 -12.9228 
20118 7 17.8719 2.63796 7.70159 5.63251 -0.33429 -2.84485 
20117 7 17.6995 1.17882 7.44002 2.99169 2.53672 -4.60664 
17799 9 19.455 -0.241526 7.33338 0.284561 6.55665 17.887 
20077 6 17.1284 2.01775 7.60787 -23.1123 2.39486 26.1018 
17484 3 19.536 4.02271 8.03155 -4.1419 -2.51256 -2.29554 
20109 5 15.1822 4.68195 9.53593 -5.6731 -7.15071 -17.1477 
17480 3 19.3808 0.510653 7.95906 -16.3694 -31.8352 10.9059 
17478 2 19.7385 0.13463 9.405 32.8517 34.0126 47.8116 
17479 2 19.7269 4.90401 9.32133 45.958 112.873 60.4225 
17485 5 21.0972 4.45706 9.83859 4.84215 -16.0189 -16.9927 
17483 5 21.125 0.57616 9.92672 5.02048 -9.78552 -13.1761 
17482 5 18.7273 0.612358 10.4453 1.19347 -3.33932 -5.56291 
17560 5 18.5746 4.39351 10.2378 -0.911118 1.72381 -11.3317 
20011 1 16.7883 2.43064 10.1919 50.2799 45.4845 51.4659 
20028 1 16.5417 -1.33752 10.1131 23.6364 17.1564 9.9387 
17481 4 19.613 -1.37684 9.30614 -12.4127 -19.6557 -37.3556 
17800 9 20.2785 3.41394 7.96437 0.290746 -2.90398 -5.48731 
20002 6 16.2002 -1.21507 7.53432 -10.2789 -7.43551 13.5836 
20044 7 15.5857 -0.449442 7.68688 4.26395 8.52676 -2.88296 
20043 7 16.3516 -1.12082 6.60323 0.278848 0.196065 -0.843621 
17377 6 19.8786 -1.6773 6.3322 0.250834 -0.135429 -0.0125063 
17415 7 20.5742 -1.92657 6.98281 2.81331 2.44347 2.0336 
14864 7 23.6314 3.83266 7.75133 5.56499 -4.71764 -1.51396 
14825 6 23.2988 2.969 7.82153 -9.23922 -3.78094 1.44047 
14863 7 24.1611 2.53617 7.90018 3.85818 -1.34475 -0.586086 
17476 1 22.5994 2.5974 10.2549 -65.6321 -41.192 56.4119 
14928 3 25.5679 4.59148 8.20809 -31.1732 -49.8546 -46.5163 
15246 9 24.7065 0.00657495 8.04332 7.95761 10.7392 20.0908 
14856 3 25.5405 0.383335 8.16649 -12.5382 -14.706 10.781 
14929 4 25.6618 2.47021 9.27814 -17.6455 -34.9996 -33.3577 
14851 2 25.7726 0.935136 9.6021 19.5391 -190.018 73.4301 
14926 2 25.8313 3.99121 9.61155 27.6902 145.46 87.8419 
14857 5 27.172 0.513951 10.0212 -9.66461 -11.817 -20.5165 
14931 5 27.2703 4.30837 10.1061 -28.1385 -11.3375 -17.894 
14832 1 28.9014 2.41808 10.4207 15.0617 12.2262 51.1126 
14930 5 24.8007 4.37565 10.6576 12.7805 -4.56764 -12.806 
14934 5 24.7275 0.511689 10.6576 5.03333 -3.63498 -0.720776 
17384 1 22.8636 -1.16741 10.5973 -1.63187 4.45697 -13.9088 
14848 1 28.7231 -1.43222 10.2624 14.9126 18.8748 -6.50263 
14898 6 29.1786 2.45721 7.88738 -13.5973 -15.2617 6.29914 
15247 9 26.3681 4.66526 7.72718 -1.61846 -1.09598 -15.3155 
14826 6 28.1456 -1.3901 7.71182 1.47939 -3.18471 26.7085 
14861 7 27.5228 -0.59177 7.7367 4.98009 5.82046 -2.26196 
14862 7 28.7608 -1.17174 6.9734 0.154226 0.0364839 -0.0638498 
17565 7 23.8543 5.62398 7.62904 12.4912 3.68397 -1.69975 
17491 7 23.3409 -0.830267 7.25909 0.0924096 0.0661608 -0.443575 
12347 6 29.4782 5.3719 8.00631 -15.1287 -7.1091 4.52713 
14939 7 29.2544 3.33895 7.63004 0.441736 -0.930791 -1.22216 
17492 7 24.1978 -1.77871 8.08715 8.15148 2.36292 -6.20293 
17450 6 23.2929 -1.42611 8.02021 -21.3399 -6.71414 19.0171 
25291 7 5.22591 6.53661 7.32751 1.17474 1.62589 -3.23385 
25290 7 3.82687 6.55555 6.86919 -0.696216 1.66818 -4.47104 
25253 6 4.33607 6.71227 7.63615 -9.61533 -11.5522 2.19573 
25517 7 1.84279 7.29014 5.50902 -0.0270771 -0.0521678 -0.555651 
25313 6 1.21101 6.45671 5.78137 6.12026 -5.56431 30.4561 
25362 7 1.19888 10.608 6.31952 -0.0175406 -0.00560363 -0.0272258 
25275 1 4.36027 6.50413 10.1833 2.28061 12.0971 3.46334 
25278 8 0.639374 6.49188 7.63496 52.5811 32.3539 9.33715 
22958 9 3.89074 10.3239 7.2783 -3.4901 1.48138 0.270938 
22732 3 4.70032 10.3548 7.96195 2.4429 -12.5826 13.337 
25359 5 0.701437 8.49354 11.0939 -10.0845 -10.3535 -16.8818 
25356 5 3.08021 12.146 10.2169 9.956 0.239873 -12.6892 
25355 5 0.535314 12.2845 10.6518 -2.54071 -5.08018 -7.38885 
25354 4 1.48185 10.2856 9.54639 -13.5463 14.1124 -26.4627 
25353 3 1.39194 12.6945 8.41831 -12.2777 -8.06575 2.61552 
25351 2 1.63225 11.8296 9.72046 39.8546 47.4848 66.3867 
25286 5 2.93236 8.28049 10.0288 -5.5167 -15.9327 -19.1349 
25285 4 0.892127 7.85648 8.74192 -20.4045 -18.4885 -4.40849 
25279 2 1.49492 8.71367 9.83417 15.534 97.4734 75.3657 
25259 1 4.86194 10.2149 10.3927 8.00812 9.21725 60.0234 
25327 6 1.60703 9.7444 6.34125 2.38185 1.29607 -0.719023 
25363 7 1.38635 9.50649 7.2315 0.407493 2.76045 1.41718 
22807 5 6.5607 12.2849 10.8694 -15.5244 -14.12 -17.4218 
22730 5 6.65234 8.34528 10.5398 -4.39173 -14.6497 -13.7308 
22726 8 6.48614 10.4372 7.49213 -1.75397 17.7722 -25.5801 
22761 6 7.05704 10.8316 5.66761 1.78155 2.54533 6.92614 
22733 4 6.9844 11.7221 8.61372 -10.8813 -12.7425 -2.77018 
22728 4 7.23016 9.05362 8.29312 -12.7743 -20.2267 -5.89394 
22953 7 7.91026 10.1976 5.3838 -0.0672731 0.0990076 -0.65488 
22965 7 7.33207 11.8331 5.45166 -0.0489472 0.14085 -0.279586 
22741 7 11.5 7.01103 7.05421 2.59968 -0.0515287 -1.56939 
22700 6 10.8104 6.36788 7.23855 -16.0137 -1.88426 18.6928 
22636 1 10.9188 6.69179 9.82281 4.04658 8.86617 12.4331 
22729 4 7.48133 6.61374 9.11192 -10.9782 -8.54553 -27.2348 
22668 7 10.5831 8.59932 7.42923 1.86803 4.29812 -3.27332 
22725 2 7.70374 8.13304 9.39568 26.4269 31.0334 95.7674 
22727 2 7.53968 12.6129 9.75953 16.3716 132.089 78.4078 
22630 6 10.7174 9.56513 7.55044 -8.08295 0.826679 5.43311 
22667 7 11.6785 9.56 7.58776 1.25234 0.713485 -1.33971 
20110 3 13.3722 8.00482 7.87861 -10.8804 -0.913287 -3.77621 
20176 4 13.3404 12.979 8.33811 -6.57803 -6.92612 -4.04132 
20177 4 13.5478 10.5013 8.95979 -6.1509 -0.36301 -16.4232 
20173 2 13.7057 11.9908 9.40771 33.2146 -5.50752 75.6029 
20105 2 13.7244 8.93675 9.12343 -2.96892 6.35024 84.7407 
20178 5 12.5598 12.2564 10.4158 -7.90448 -12.3816 -22.7519 
20183 5 12.8988 8.51128 10.3587 -3.42512 -11.1246 -7.44484 
22734 5 8.97942 12.4092 10.1072 -12.2662 -12.302 -17.324 
22723 1 10.5486 10.4168 9.97488 -2.9711 4.27117 10.0278 
22731 5 9.11607 8.33188 9.85191 -15.5316 -24.1802 -22.0057 
20354 9 13.8366 7.1662 8.02076 -1.19899 -12.4347 -25.4564 
17489 7 15.3685 7.53149 7.27379 -6.22835 -2.30284 -3.77104 
17490 7 16.4114 7.08597 6.51817 -0.225751 0.0325364 -0.311415 
17451 6 15.9423 6.78743 7.29642 -18.5911 -16.9596 17.4717 
17555 4 19.5148 6.40419 9.24816 -10.6582 2.55629 -18.2386 
20102 1 16.4765 6.46221 9.86905 10.8776 0.202927 18.8556 
20179 5 15.0791 12.3713 9.86379 2.90553 3.89432 -11.452 
20111 5 15.0953 8.51182 9.52882 -26.1206 -13.7561 -14.8855 
17802 9 19.4832 11.878 7.51898 -0.112948 -0.0994542 0.152748 
17554 3 19.6317 8.68088 7.9737 -1.82267 -5.29746 6.15521 
17801 9 19.3812 9.57046 8.10065 0.576529 12.1689 6.33485 
17558 3 19.3121 11.5602 8.35726 -3.93719 -2.08746 -0.186148 
17552 2 19.7279 7.97853 9.40881 24.2052 56.8991 59.9086 
17553 2 19.7446 12.5897 9.5152 42.3468 42.2712 68.9698 
17559 5 21.2085 12.1329 9.83297 6.89559 -0.422023 -11.2101 
17557 5 21.1128 8.33065 9.93016 1.02526 -11.4079 -16.2502 
17556 5 18.49 8.44005 10.194 12.6711 -3.79615 -7.43371 
17631 5 18.754 12.2185 10.6826 1.89351 -5.43461 -4.39171 
20084 1 16.8199 10.2664 10.3615 -11.3297 -4.43553 -0.382721 
17566 7 22.7737 6.49197 7.09029 0.0936295 0.0171827 0.0481882 
17525 6 23.2369 6.30614 7.97014 -29.7548 -5.60878 17.5359 
15249 9 26.4199 12.3989 7.50271 0.840728 0.682291 0.254693 
14924 1 28.8784 6.30371 10.2599 24.4551 20.1328 -12.5319 
17459 1 22.8153 6.36449 10.4136 -83.336 -68.2533 35.8374 
17550 1 22.6813 10.1773 10.109 18.9481 17.636 9.27636 
15248 9 25.0074 7.30471 8.25379 6.71691 8.81475 8.76575 
15002 3 25.5553 12.1132 7.86039 -4.75886 -8.7315 8.8255 
14932 3 25.8534 7.69566 8.37038 -4.60235 -4.13619 1.28609 
15003 4 25.6929 10.0578 9.40228 -8.77692 -5.80793 -24.1431 
15000 2 25.8234 11.5586 9.33827 28.1434 102.153 75.7421 
14927 2 25.9265 8.52626 9.67582 38.3553 66.0015 76.2785 
15005 5 27.2586 12.0307 9.65026 -1.49423 -12.6485 -17.7918 
14933 5 27.3368 8.19806 10.2714 9.5622 -13.8323 -18.0618 
15004 5 24.794 12.1885 10.2281 1.29362 3.14701 -13.6336 
14907 1 29.0423 10.186 10.3202 23.6699 18.1461 22.6349 
15008 5 24.7476 8.17989 10.6591 15.9686 -0.138494 -2.6368 
14899 6 29.4402 9.94521 7.67407 -3.19488 0.062311 5.42177 
17637 7 24.0129 13.1402 7.48134 1.60718 0.641326 -0.198843 
25427 5 0.471403 16.2254 10.9577 6.18003 -3.52998 -4.13858 
25424 5 3.05777 19.7432 10.2643 -15.0275 -6.13353 -9.93623 
25423 5 0.62854 19.9386 10.7649 3.65529 -4.23301 -11.0919 
25422 4 1.53223 17.8586 9.5283 -9.68746 7.26563 -14.185 
25421 3 1.35286 20.1653 8.46116 -3.19051 -2.55935 -0.0758434 
25419 2 1.68921 19.4163 9.80763 -41.5882 138.591 65.5764 
25358 5 3.0433 15.9649 10.3935 6.0756 -1.14981 -11.2832 
25352 2 1.62447 16.359 9.9389 55.9847 1.84284 35.7029 
25333 1 4.76049 17.9652 10.8964 -5.27237 13.1285 -17.3999 
25357 3 1.27516 15.4524 8.77037 -11.957 -17.0234 18.8338 
25460 9 1.6173 15.8283 7.87293 0.0951036 0.361521 4.22586 
25349 1 4.58657 14.1062 10.6957 7.16076 16.2025 -1.30062 
22803 5 6.49129 16.0975 10.8756 1.00495 -1.2246 3.67497 
22875 5 6.46084 20.071 11.1158 20.3073 8.49869 8.52924 
25459 9 1.48999 13.6574 8.56205 -1.73882 4.70851 -3.77497 
22801 3 7.03055 16.5942 8.55987 -2.12433 -6.77899 4.31062 
2179 7 -0.387305 20.8468 8.22815 14.3318 2.16134 -6.43523 
15068 1 24.5674 23.6019 12.9596 55.3247 43.9025 7.59746 
22805 3 7.32975 19.3599 8.91011 -8.32756 -8.6774 25.7283 
22908 9 7.54595 19.9046 8.12021 0.00247972 0.260843 6.55534 
22774 6 7.84223 14.1301 6.46407 2.0805 1.34456 1.76896 
22907 9 7.21638 17.5067 8.66763 -0.14534 20.1666 1.6484 
22800 2 7.69826 20.1918 10.1825 71.4664 58.0654 38.742 
22810 7 9.52718 17.6319 7.67339 -2.04833 0.925337 -1.9506 
22775 6 10.3724 17.5576 8.1234 -18.0784 -8.83511 6.43396 
22811 7 11.0269 17.744 7.42304 6.06472 0.997998 -1.26141 
20249 3 13.6146 20.1923 8.5115 -17.1216 -15.9704 20.1644 
22799 2 7.50164 15.6895 9.76752 0.194383 20.7961 67.6542 
20181 4 13.1648 15.598 8.7498 -9.67525 -31.8232 -10.9095 
20250 4 13.59 17.8559 9.69511 -13.6544 6.59407 -27.0196 
20247 2 13.6446 19.4223 9.89672 1.71238 28.476 67.7667 
20175 2 13.7411 16.3389 9.95052 44.0299 115.435 87.8291 
20255 5 12.7826 16.0392 11.1348 -2.8734 -11.5698 -17.5948 
20251 5 12.5994 19.887 10.8751 -0.632155 -0.0617893 9.95873 
22797 1 10.5866 17.8329 10.6706 3.2679 -1.50535 19.3013 
22804 5 8.85928 16.0465 10.2629 -4.37646 -11.1265 -13.7722 
22806 5 9.15709 19.6726 10.6518 26.5002 -12.4169 -11.4357 
20209 6 12.874 15.0323 5.7533 0.494373 -0.347574 1.50735 
20174 8 12.7095 14.4625 7.54514 27.3396 10.7962 -53.9315 
22802 4 7.35344 14.1712 9.46207 -20.7394 9.61522 -27.9087 
22707 1 10.7485 14.2517 10.2767 11.674 10.3896 -22.1371 
20180 3 10.8086 14.0423 7.95232 18.192 -8.78803 4.76408 
20260 7 13.0324 18.8856 6.99744 0.118332 1.32148 1.23338 
20261 7 12.9162 17.3666 7.33817 -0.58233 10.5319 5.44873 
20401 7 13.4229 15.9899 5.62814 -0.164435 0.310932 -1.27947 
20406 9 10.0189 14.4108 7.4707 -1.2806 2.81052 -2.2765 
20413 7 11.9327 15.1884 5.26927 -0.0688519 -0.0250369 -0.439544 
20222 6 12.7014 18.0477 6.67459 -0.728826 0.736331 -0.956839 
22813 7 7.7456 15.0607 6.62462 -0.0738911 -0.0536175 0.0768238 
22812 7 7.44152 13.8113 7.30537 0.709443 1.39633 6.67294 
17861 7 18.0327 18.1656 5.18632 -0.0416348 -0.0258743 -0.194992 
17849 7 19.1146 19.332 5.5722 -0.0531357 0.151653 -0.565243 
17657 6 18.7692 18.3451 5.88217 -4.82402 -2.63388 15.1377 
20252 5 14.9691 19.7344 10.5394 -8.53444 -13.5702 -18.6928 
20182 5 15.2166 16.0409 10.213 -3.79382 -20.4773 -14.5232 
17622 8 18.5634 18.0799 7.75046 32.173 27.8645 -15.3324 
17854 9 15.9449 18.6012 8.0719 -0.371444 2.01445 -3.47761 
17628 3 16.7563 18.0742 8.25458 4.19904 -9.93394 10.1272 
17624 4 19.3217 16.6826 8.46567 -7.81114 -11.481 -3.37024 
17629 4 18.9827 19.4332 8.85904 -13.5688 -12.2663 1.67359 
17621 2 19.6951 15.6526 9.54627 46.21 94.035 82.1177 
17623 2 19.5501 20.2671 10.0023 51.5514 24.543 78.169 
17630 5 21.0316 19.7719 10.2793 12.6748 -2.43938 -16.0815 
17627 5 21.1919 15.89 9.96206 1.26496 -17.5683 -17.1666 
20155 1 16.8424 17.9752 10.6946 1.34436 10.5364 -32.235 
17626 5 18.7672 15.8963 10.7355 -8.80742 -8.90402 -13.7009 
20171 1 16.7158 14.1373 10.3208 4.99303 6.31792 -16.1112 
17625 4 19.606 14.0957 9.12525 -6.05126 8.02007 -11.5518 
17564 7 21.4906 17.2833 7.58657 -0.598665 1.55317 -1.26485 
17703 5 18.6795 20.0258 11.2014 -15.007 -12.1586 -21.8425 
17709 7 19.905 20.6273 7.34679 2.89382 4.92379 4.3498 
20259 7 15.568 20.8847 8.4035 12.0826 3.51735 -2.58304 
17526 6 22.4132 17.452 7.70597 -7.47639 -6.59314 18.2124 
17563 7 22.8092 16.6576 7.3521 0.244614 0.342534 -1.95308 
17619 1 22.5682 17.9268 10.3236 11.2026 12.6452 -20.6063 
15250 9 25.4259 16.554 7.3496 3.19597 4.14074 70.3838 
15006 3 25.6058 15.7572 7.92658 -17.2049 -12.1179 55.5337 
15072 4 25.3173 20.4252 8.40544 -12.8402 -7.81374 -2.87316 
15073 4 25.9599 17.9542 9.15621 -15.6757 6.30551 -34.6497 
15069 2 25.8295 19.4844 9.52152 46.2207 196.179 67.5668 
15075 5 27.2671 19.8707 9.91392 5.23932 -4.11907 -14.4764 
15001 2 25.8934 16.4473 9.39988 31.5331 21.3945 33.3457 
15007 5 27.2951 15.9854 9.7832 -0.403984 -10.4016 -15.9906 
14980 1 29.1857 17.8209 10.1444 -13.3215 -20.8487 14.5241 
15074 5 24.8028 19.6389 10.6176 -6.07881 -5.40784 -19.6302 
15079 5 24.8396 16.1163 10.4638 8.61861 -3.34831 0.0507243 
12533 7 25.4571 18.3754 7.23091 -0.473722 4.32322 5.89003 
17532 1 22.9834 14.1035 10.1761 9.62062 11.9356 9.73214 
14998 1 28.6373 13.9834 10.0874 19.8505 24.5685 13.3646 
12492 6 25.1645 17.9196 6.43544 -1.25266 -1.69421 -0.929526 
12532 7 24.2391 17.8074 6.45162 -0.0749987 0.00716052 -0.22945 
17636 7 24.2982 14.6547 7.77674 3.12455 -4.77098 -4.59552 
17597 6 27.3956 19.7327 6.47718 -16.2928 -0.917372 0.872143 
17635 7 27.0344 19.9354 7.31032 6.33697 1.12331 -2.33191 
17596 6 23.5563 13.9987 7.66239 -11.3726 -1.48649 4.67553 
14974 6 28.7308 14.0837 7.53935 -5.54783 -10.8451 7.62446 
17634 7 26.9707 18.9124 6.11254 0.286334 0.566408 -0.149512 
15084 7 28.6931 18.2675 6.90767 0.585585 2.75189 -1.5019 
15012 7 28.1952 14.867 7.30744 1.75786 1.79282 -1.75365 
15044 6 29.2899 17.8272 7.55162 -18.2653 -15.1207 14.5282 
15011 7 29.5706 14.1102 6.99075 5.02851 0.867852 -0.279551 
25461 9 1.63963 21.1191 8.56579 -0.481633 8.99322 -6.07345 
25417 1 4.459 21.7465 10.9217 -16.9499 -19.6866 -32.9576 
24923 5 0.754769 27.5218 10.9484 6.23492 1.89143 -2.50109 
25425 3 1.35108 22.98 8.77836 -10.3478 -8.05989 18.795 
24927 5 0.559259 23.61 11.1153 15.8417 -1.57514 7.95514 
25426 5 3.10363 23.8017 10.4009 3.74976 -9.34613 -9.65073 
25420 2 1.64879 23.9265 10.0018 34.37 96.9864 58.3101 
25401 1 4.97038 25.5329 10.7242 12.0903 4.93191 4.37595 
24924 5 3.18735 27.1766 10.4054 -6.1745 -6.09768 -14.7009 
24922 4 1.38256 25.4386 9.75254 -16.2248 10.4294 -17.0406 
24919 2 1.7823 26.9563 9.95451 0.0441093 144.559 62.7189 
24921 3 1.55556 27.7248 8.56562 -3.18465 -0.907962 8.4442 
25462 9 1.60156 23.3783 7.96981 -0.0576278 0.115524 1.81124 
22871 5 6.64021 23.6959 10.9095 4.67904 -5.01382 -5.03015 
25451 9 2.36751 27.8615 8.13061 0.0486842 0.479275 1.54193 
22375 5 6.78156 27.3777 11.2762 2.23924 -3.85577 -3.82811 
20355 9 13.7553 21.1037 8.67011 -2.76471 21.3004 -0.95524 
22873 3 7.36095 26.8242 8.94079 -1.57541 -2.77802 22.159 
22910 9 7.83453 27.1872 8.16884 0.0152338 0.297781 5.20773 
22881 7 10.5673 22.2037 7.78641 0.172102 0.144561 -0.587949 
22880 7 12.0072 21.7432 8.22322 12.0546 4.39314 -4.5066 
22869 3 7.56442 24.0265 8.5961 -0.825575 -1.25195 0.689935 
22842 6 11.0399 21.8185 8.50693 -11.4833 -8.44152 2.33366 
22909 9 7.42422 24.9915 8.72358 -0.341299 9.42756 -0.579187 
22870 4 7.80675 21.6814 9.76784 -9.63742 13.0822 -14.8151 
22781 1 10.8959 21.6885 11.0129 -25.98 -19.353 22.5137 
22868 2 7.76545 27.7412 10.1816 36.9389 97.671 43.5937 
22867 2 7.78902 23.2324 9.92461 52.9861 189.479 72.8285 
22381 7 12.0152 26.341 8.4485 10.9874 9.07061 -1.40986 
20253 3 13.4682 23.4016 8.82795 -28.997 -27.5619 6.35253 
22380 7 10.8121 26.2531 7.54966 0.0734457 0.104659 0.0989601 
22342 6 11.2091 25.8188 8.3988 -19.2664 -2.47212 29.8183 
20317 3 13.3219 27.8427 9.08682 -9.87469 -13.0093 -8.18941 
20248 2 13.7696 24.0294 10.2263 7.14176 2.94652 111.123 
20318 4 13.624 25.5447 10.0164 -28.7991 -18.8951 -43.675 
20315 2 13.7788 27.0543 10.3348 49.9685 -15.5881 82.0391 
22865 1 10.6865 25.3992 10.9226 12.8063 11.2884 28.1151 
22872 5 9.17462 23.6871 10.462 5.49907 -15.4492 -14.1931 
22874 5 9.24947 27.6706 10.5948 6.85361 -9.6551 -10.5498 
20356 9 12.5954 23.6209 8.49206 10.2525 3.83707 -9.7651 
25431 7 14.1509 26.52 7.83751 1.0287 4.70987 6.80303 
20323 5 12.8525 23.6161 11.429 2.22302 -7.65474 0.676995 
25430 7 14.093 24.9955 7.86813 1.59676 4.66469 10.4973 
25395 6 14.4016 25.7329 7.27378 -0.135842 0.0934734 -0.163921 
20258 7 15.2294 22.3163 8.12146 1.30013 0.116689 -1.47012 
20223 6 16.0015 21.7513 8.2238 -7.19315 -1.19289 9.35622 
20245 1 16.5342 21.695 10.8038 16.6376 20.5104 30.1243 
17698 4 19.4354 21.7483 9.56107 -11.4703 -3.54577 -28.3706 
20320 5 15.2214 27.4242 10.856 4.59655 -11.0089 -14.627 
20254 5 15.1801 23.5949 10.561 -15.9696 -11.3916 -20.6283 
20329 7 17.2434 26.6466 8.28058 4.02886 3.18891 -3.57282 
20328 7 16.0419 25.8023 7.61998 1.69679 -0.0236197 -0.0668316 
17803 9 18.6355 24.4714 8.19816 9.12175 9.16629 -0.660646 
20290 6 16.6573 25.8385 8.42977 -27.2124 -4.52664 8.08811 
17697 3 19.4666 23.9299 8.24968 -7.13894 -15.1528 7.69773 
17701 3 18.7572 27.5768 9.07536 -11.3694 -29.3571 -3.59639 
17695 2 19.6311 23.298 9.64847 -0.111378 4.64919 76.4951 
17696 2 19.6976 27.9701 10.2409 33.2342 99.096 92.1378 
17700 5 20.9899 23.6351 10.1729 -17.259 -7.55788 -18.8708 
17702 5 21.0953 27.3466 10.1236 8.13783 -13.1858 -20.8362 
17699 5 18.7076 23.7838 10.7613 -2.80318 -4.20666 -1.6048 
20229 1 17.0048 25.6018 10.9426 17.627 14.823 -31.3324 
17708 7 20.0702 22.1005 7.0657 -0.256059 1.37391 0.769011 
17670 6 20.1319 21.2549 6.64674 -0.734496 0.880896 -1.23083 
17707 7 20.7868 25.2363 7.6314 4.64912 4.89608 -0.0884404 
17706 7 21.1787 26.5559 8.43819 0.0717644 6.4702 6.71078 
17671 6 21.5933 25.7538 7.94146 -0.175893 -4.63978 5.55263 
17804 9 18.1596 28.2261 8.79174 4.31651 -0.385145 -2.96 
15302 9 22.12 22.0167 7.2663 -10.8083 2.26125 -0.73276 
15082 7 28.9341 21.4367 6.98265 -0.142722 1.8999 -3.06552 
15309 7 26.1711 21.1856 5.56242 -0.0527192 0.35221 -0.582853 
15297 7 25.7773 22.9358 5.36905 0.0237652 0.420926 0.038769 
15076 3 22.8653 21.7306 7.945 5.30241 -10.1765 7.05638 
15105 6 25.4296 21.9972 5.7434 2.55651 2.84874 8.77792 
15067 1 28.5009 21.8246 10.3102 7.07367 13.7227 35.7718 
17603 1 22.8719 21.8054 10.3091 41.9668 31.0013 59.7717 
15070 8 24.6898 21.8654 7.53391 8.4018 21.8979 -5.80798 
15157 7 24.761 24.7113 6.5409 0.0541645 1.39277 -2.25374 
17693 1 22.4585 25.6458 10.3024 35.5156 46.8431 62.8673 
15118 6 24.3516 25.0692 5.80024 0.219314 -0.0143416 -0.0794014 
15156 7 23.4675 25.4068 6.08223 0.346551 0.0650725 -0.0155053 
12750 9 28.7793 27.0604 8.02173 -18.1654 -1.31876 -3.58634 
15145 3 25.8709 28.1424 8.32624 -24.8711 -9.93554 24.8956 
15077 4 25.2347 23.1977 8.50469 -14.6957 -21.6999 -11.7142 
15146 4 25.5466 25.6818 9.29943 -7.6296 18.0165 -15.4348 
15143 2 25.8227 27.2278 9.63665 33.3462 57.4386 41.2327 
15071 2 25.6377 24.1622 9.58877 41.7281 136.846 70.8087 
15078 5 27.0823 23.775 9.8664 3.69203 -1.44539 -12.4736 
15148 5 27.2019 27.5255 10.2775 11.5865 -13.3179 -15.8847 
15051 1 28.9278 25.6837 10.4438 0.433645 13.1322 51.1102 
15147 5 24.7278 27.7419 10.5663 3.77594 -1.82208 -8.29538 
12524 3 29.1596 26.0649 8.01414 -11.2376 -1.25378 9.07197 
15045 6 29.2043 21.7754 7.82857 -18.4225 -10.9682 5.27928 
15251 9 25.5134 27.6474 7.63837 -0.0985936 -0.308096 15.5052 
15151 5 24.6677 23.8201 10.7274 -4.81579 -7.90624 -16.2962 
25272 7 1.00435 4.46993 16.0316 5.54354 -1.14623 7.35512 
25198 5 4.5419 2.55475 12.6561 -16.6277 -8.22327 -8.7975 
25195 5 4.3158 -1.09258 12.7632 -0.720102 -3.36998 5.54793 
25511 9 -0.0915524 1.14571 16.0746 -24.0483 3.16991 -4.92871 
22635 1 6.05896 0.692999 12.8525 -31.665 -10.3611 -16.876 
25268 5 2.06322 2.89899 12.9931 0.758884 -9.91667 -22.4262 
25258 1 0.250924 4.4912 12.7638 4.55632 0.536004 5.82859 
25207 1 0.476342 0.786529 13.0733 12.7655 40.3865 24.9665 
25191 2 3.47612 3.03985 13.5769 19.4746 -11.1539 64.8945 
25263 4 3.57926 4.53329 13.9916 -25.8495 -6.86783 -27.0791 
25197 4 3.26023 2.0922 14.7531 -12.4118 -25.6344 -8.87131 
25192 4 3.04502 -0.482259 14.848 -4.45404 -7.55612 -3.76362 
25196 3 0.648496 1.17093 15.3995 6.80033 -15.2105 7.86816 
25190 8 2.48068 0.927001 15.8164 -21.0429 29.992 -23.4242 
25240 6 2.71503 0.564869 17.6928 9.13107 -7.58747 12.37 
25519 7 2.88966 1.34539 18.3836 -2.52584 8.83524 -15.3734 
25507 7 3.46999 -0.236543 17.874 1.79088 4.59912 -7.74829 
22649 6 4.33703 5.00774 17.1603 -21.2783 -13.0979 -11.7606 
25308 6 0.293603 4.61533 15.3412 -7.69897 0.808736 11.5658 
22959 9 6.2634 5.16628 15.9843 1.03137 4.08676 -1.03107 
25270 6 1.69192 4.19661 17.74 -21.397 -1.55861 -24.2135 
25310 7 2.16327 3.52545 18.2051 -4.73067 -2.9204 7.78739 
22655 1 6.37544 4.67075 12.8239 3.68271 17.3746 7.65568 
25194 5 1.89442 -1.62182 13.1754 0.800017 -12.991 -18.2592 
25189 2 3.31878 -1.5892 13.8009 41.4656 77.7021 92.6298 
25309 7 0.888037 4.30512 18.2913 8.10053 -2.29627 2.91372 
22683 6 6.20051 1.08502 15.3372 -6.41311 -8.72164 -6.76603 
22650 7 6.64603 1.5468 16.1101 2.58654 4.44813 9.90005 
22684 7 3.49242 4.80212 17.5182 1.7596 -0.492992 -6.90377 
22685 7 4.19026 5.18505 16.2389 -3.58511 15.512 10.3901 
22651 7 5.244 1.29838 15.2737 11.4195 1.86531 -4.5817 
22644 3 6.88367 4.76741 15.2732 27.726 -14.86 23.8473 
20061 7 6.79984 3.48609 17.2473 9.96487 21.8458 10.0087 
20023 6 6.97957 2.51604 17.5501 -3.9616 15.004 -6.69772 
22760 7 4.96614 5.1027 19.1506 2.68379 -0.776358 2.3812 
15171 7 22.968 28.1677 19.2534 0.1313 -13.8872 -4.85297 
22687 7 5.6775 1.47184 18.9105 4.43849 1.3227 5.50045 
25236 7 0.290438 0.195208 18.8524 2.5859 3.1248 -3.10095 
25378 6 -0.326374 12.2916 15.8212 -12.4577 -5.47755 10.6647 
20022 6 13.6269 -0.768788 16.9949 -22.6855 -7.56464 11.1423 
20063 7 13.9109 -0.482272 17.9361 -1.60557 4.17194 8.64441 
20062 7 7.74377 2.58472 18.1668 11.0907 3.38305 17.6116 
20101 7 10.0228 0.156203 17.6372 -4.24114 0.991882 -6.92292 
22931 9 9.51776 -1.23482 15.6906 0.00888476 0.523442 -32.4902 
22643 5 10.3472 2.57234 12.1955 -2.36067 -4.18398 -8.75737 
20083 1 12.0539 4.57824 12.2941 24.7973 15.4042 24.4756 
22642 5 7.78438 2.32799 12.6693 -0.417032 -5.01044 -19.2948 
22572 5 10.3915 -1.19034 12.4814 -1.37771 -7.77269 -11.1045 
22647 5 8.01803 -1.15376 13.3887 8.80933 -12.6935 -13.7172 
20029 1 12.4935 0.818447 12.5759 -0.130726 12.4538 -15.345 
20095 5 13.8672 2.81253 13.0198 -12.1639 -10.8864 -13.9934 
22637 2 9.23854 2.21284 13.1776 44.0376 -25.34 69.1108 
22565 2 9.47766 -0.798971 13.6553 32.8308 47.9408 58.2835 
22641 4 9.6135 0.790931 13.697 -22.8207 -10.8303 -23.261 
22640 4 9.10375 3.21619 14.2882 -9.95199 -19.2944 -9.26748 
20060 6 12.284 1.02574 15.0323 -15.3579 -11.8725 -0.930209 
20025 7 11.4497 0.595158 15.1711 1.63517 3.27385 -5.74508 
22638 8 8.7346 4.47272 15.4355 59.8995 45.5261 74.865 
20024 7 12.8007 0.779305 15.847 2.96122 7.66506 3.98007 
22688 6 9.74225 4.42685 17.1084 6.68638 11.2518 35.3514 
20130 6 9.29233 0.695401 17.8998 -3.08783 -9.72588 -3.72338 
20016 5 13.8732 -1.10957 13.0216 2.27017 -14.4467 -20.3041 
20100 7 9.02694 0.225986 18.6954 -6.78813 4.71903 -3.16583 
22967 7 9.62725 3.50054 17.7382 3.47451 18.6184 32.0208 
22571 3 10.0929 -1.43953 14.9398 -20.5998 -14.4555 -3.88036 
22955 7 9.58051 5.13964 17.878 1.25627 4.04584 19.7095 
20379 9 14.5285 1.95962 15.4386 -0.345075 2.30634 -6.58093 
20064 7 14.3669 -0.657533 16.4271 -11.6255 -0.792915 -26.0344 
20135 7 12.2165 -0.00373272 18.1947 5.2506 6.68775 6.28118 
22919 9 9.10038 2.34853 19.1649 -1.38387 11.3629 23.9298 
20134 7 11.3132 1.18217 18.5879 8.46143 0.463223 -3.94693 
20378 9 15.4007 0.0444891 14.8487 2.31509 60.7906 27.0993 
20012 2 15.2359 -1.61828 13.5115 11.986 81.9024 71.1746 
17469 5 19.9364 -1.30131 13.4326 -6.65576 -12.9677 -13.696 
20017 5 16.2815 -1.21496 12.5395 8.56836 -0.765308 -6.76855 
20020 5 16.2894 2.4578 12.6312 -7.30329 -4.99341 -11.9233 
17477 1 18.4308 4.50707 12.7514 50.3991 45.8629 56.3455 
17458 1 18.218 0.637135 12.871 55.3069 42.6975 10.2898 
17464 5 19.9587 2.61017 13.0923 -3.10962 -11.7455 -12.6655 
20014 3 15.3481 -0.927596 14.9324 -20.2226 -3.50847 19.1474 
20013 2 15.2355 2.86552 13.6686 29.1423 -8.28876 62.0092 
20089 4 15.4847 4.41259 13.8828 -22.8604 -0.710904 -26.3569 
17460 2 21.2934 2.30374 13.8302 55.8502 43.7719 85.7882 
17386 2 21.2555 -0.760946 14.0881 53.0972 137.53 4.4156 
20019 3 15.3637 2.04674 14.9933 -26.3758 -10.0239 9.78017 
17466 6 17.8705 0.866528 15.3656 -7.92762 -11.6739 7.10995 
17494 7 18.5632 1.2485 16.0018 6.75424 7.54116 2.35718 
17493 7 16.9873 1.07384 15.7904 11.9704 5.3117 -3.42491 
17471 6 19.3864 2.7825 16.9958 -28.2875 -12.5734 1.58673 
17510 7 20.0302 2.85714 16.3544 -6.68902 1.8806 -16.5475 
17509 7 19.864 2.72342 17.8797 4.41005 0.866585 22.6911 
17463 4 21.2166 0.803669 14.1626 -19.7689 1.01496 -32.1788 
17472 7 18.2155 4.08669 15.9734 3.70055 7.58285 -0.540062 
17508 6 17.9626 4.6977 15.2589 0.368897 -18.498 9.55535 
17473 7 16.9112 4.55968 15.284 17.6199 0.984253 -0.0740542 
14959 7 21.3082 -0.693669 18.4701 1.21222 6.11874 8.86701 
14960 7 21.2445 0.658454 17.9512 -0.395179 -3.84008 0.731432 
17391 3 21.6355 -1.36926 15.3978 -23.2513 -57.5348 -45.4692 
17825 9 21.7125 -0.74819 16.1197 -3.01058 -8.73129 -29.1987 
17462 3 21.4482 3.13532 15.1224 -13.0802 -11.3083 -1.18359 
14918 6 21.7074 -0.161875 17.7505 5.117 -5.88501 -6.90142 
17583 7 18.4058 3.80972 18.7917 4.31688 2.77629 -1.14614 
17827 9 21.0815 5.26818 15.4204 -0.853394 22.2501 12.529 
17544 6 17.9959 4.55597 19.234 -21.6895 -16.6801 -2.54698 
25271 7 -0.419165 3.93131 15.6553 8.91965 7.50433 -3.81671 
15140 7 24.6432 24.0439 16.372 2.74557 3.69733 -1.25825 
17582 7 18.7585 5.13648 19.3566 2.29529 2.85748 -1.72703 
12752 9 29.6137 4.29276 18.8106 -24.1544 0.207295 -4.77825 
17826 9 22.3079 3.65143 15.0534 17.8342 16.8494 3.30487 
12370 7 29.495 4.51997 16.5987 2.00536 2.27559 -9.61884 
14868 8 26.1546 0.395579 19.2878 -33.5025 18.3226 -22.0084 
12293 7 29.5262 1.81482 16.1225 11.0975 4.4391 -2.72632 
17392 5 22.3788 -1.113 13.0479 12.1964 -0.873591 1.41188 
15272 9 27.0313 -0.683728 15.5558 -0.647076 3.01041 -13.4467 
14833 2 27.436 -1.7351 13.7653 7.12727 2.5689 91.9693 
14837 5 26.0685 -1.25524 13.3193 -13.3393 -14.4415 -15.6217 
14835 3 27.7915 -1.08905 15.1604 -18.4188 -26.0702 -7.11924 
17465 5 22.4822 2.65522 12.8638 2.68695 2.83102 4.1576 
14838 5 28.4591 -1.17305 12.8109 -6.61551 -8.17531 -15.864 
14840 5 28.4301 2.34442 12.9979 -1.43541 -1.19513 5.45834 
14906 1 24.3647 4.44957 12.9572 47.5898 38.2065 -79.6072 