ITEM: TIMESTEP
270000
ITEM: NUMBER OF ATOMS
25517
ITEM: BOX BOUNDS pp pp ff
-3.8959205201285124e-01 6.0088135642019459e+01
-1.9452389155355383e+00 5.9115524189537531e+01
-1.2206056431032383e+01 1.1390111600702880e+02
ITEM: ATOMS id type x y z v_stressx v_stressy v_stressz 
25292 7 5.89857 3.03966 7.5916 -2.47935 -8.47529 -6.05649 
25293 7 5.98077 1.53035 7.7064 -1.91341 -5.89321 -1.85238 
25252 6 5.35811 2.25094 7.51796 -6.31748 -3.25638 0.138625 
25287 5 0.61597 0.755495 10.7564 7.67711 -1.57846 3.39314 
25283 5 2.94291 4.2301 9.842 10.8472 6.4052 -12.673 
25281 4 1.3887 2.44216 9.07367 -12.995 1.81353 -15.7631 
25280 4 1.07853 5.00258 8.46007 -12.9603 -8.64728 -6.57945 
25277 2 1.45655 3.94107 9.49571 52.885 35.5147 79.0606 
25215 5 2.99957 0.588718 9.72621 -14.4818 -10.1048 -11.7416 
25209 2 1.59287 0.935181 9.44522 10.3249 -58.6129 73.3923 
25188 1 4.8243 2.58953 9.97468 4.99886 0.925849 13.8694 
25214 3 0.796635 0.0137284 8.44439 -2.17435 -4.99844 2.38966 
25282 5 0.520916 4.37471 10.6565 -15.4089 -14.711 -18.0248 
25458 9 1.40812 -0.435335 7.83607 0.0185136 2.15901 1.78443 
25206 1 4.52732 -1.17961 10.115 34.805 38.0522 20.2047 
22660 5 6.52822 0.875659 10.2203 -1.37304 -5.83022 -16.1091 
22735 5 6.623 4.87348 10.5536 2.2752 -9.17982 -12.3513 
25505 7 1.83983 5.65447 5.50835 -0.0575614 -0.165929 -0.298507 
22662 3 7.17647 4.29529 8.22411 -12.2277 -23.2837 -19.2542 
22658 3 7.30314 0.346889 7.89736 -14.8932 -15.2184 -11.2761 
22905 9 7.65252 -0.485879 7.46068 0.0192745 -0.4133 -4.4914 
22906 9 7.50322 4.57024 7.35908 -2.71275 4.38204 9.89181 
20115 7 11.1372 2.292 6.49758 0.448985 -0.0044277 -1.15492 
22656 2 7.7059 0.365729 9.40584 22.6432 74.2013 61.3351 
20116 7 12.1136 2.88755 7.40659 19.7329 6.72845 2.70347 
20078 6 11.1398 2.86581 7.23657 -16.0102 -11.7172 1.68997 
20106 3 13.741 4.72985 7.46261 -15.8929 -11.1016 42.445 
22657 2 7.60419 5.1024 9.41016 54.2764 -15.2604 20.5935 
20036 3 13.619 0.47741 7.57109 -16.7678 -19.6092 16.7355 
20107 4 13.6664 2.6833 8.8298 -18.2727 -14.1916 -34.3685 
20104 2 13.8784 4.18168 8.97251 32.5444 36.4118 94.7757 
20031 2 13.7132 1.1448 8.96008 63.4812 164.488 16.4937 
20108 5 12.6966 4.70757 9.81807 14.6742 11.9484 1.62896 
20112 5 12.4932 0.846951 9.91178 10.9419 -0.453777 5.45355 
22654 1 10.4859 2.78478 9.68506 11.3745 10.3652 11.005 
22661 5 9.03983 1.11007 9.56315 -7.60436 -6.54122 -16.0706 
22663 5 9.10858 4.7108 9.73761 4.25516 -12.8607 -15.0893 
22563 1 10.886 -1.13469 10.1589 -0.0583426 -0.315196 -7.4145 
22659 4 7.7627 -1.12896 9.68153 -9.67582 -34.892 -34.9826 
22629 6 11.3751 -1.065 7.76545 -16.8578 5.01423 2.30463 
22669 7 11.9249 -0.207968 7.44815 1.33051 5.21817 -1.2522 
20352 9 13.8605 1.22514 6.87465 0.74411 12.5486 14.5737 
20189 7 14.2777 3.18994 6.51456 0.29454 13.5427 8.31379 
20353 9 14.543 5.23857 7.22704 7.76338 13.2203 16.7888 
20148 6 14.5671 2.45013 5.87332 0.144198 0.0562424 0.099554 
22740 7 11.2703 5.5881 6.8279 3.29417 1.4904 -1.14868 
22738 7 8.76742 5.41578 5.90114 -0.677545 0.706407 -1.31748 
22701 6 7.85394 5.37142 5.69312 0.450471 -0.332852 7.80151 
22739 7 7.886 4.86164 4.87022 -0.0109787 0.0203037 0.00849876 
22670 7 11.9327 -1.89861 7.72342 1.08228 1.66884 -5.15724 
20188 7 15.4435 2.20345 6.22553 0.81577 -0.133216 0.0726841 
20037 5 15.0057 0.565552 9.66218 -1.15428 -6.90244 -13.2338 
20118 7 17.8719 2.63796 7.70159 5.63606 -0.319044 -2.99676 
20117 7 17.6995 1.17882 7.44002 2.99944 2.56096 -4.78558 
17799 9 19.455 -0.241526 7.33338 0.333559 6.59749 17.8914 
20077 6 17.1284 2.01775 7.60787 -23.0791 2.29896 27.181 
17484 3 19.536 4.02271 8.03155 -4.22028 -2.56529 -2.29761 
20109 5 15.1822 4.68195 9.53593 -5.9095 -7.25919 -17.0323 
17480 3 19.3808 0.510653 7.95906 -16.4223 -31.8822 11.3976 
17478 2 19.7385 0.13463 9.405 32.4426 34.8744 48.0023 
17479 2 19.7269 4.90401 9.32133 46.8687 113.405 60.9438 
17485 5 21.0972 4.45706 9.83859 4.93075 -16.0006 -16.106 
17483 5 21.125 0.57616 9.92672 5.10042 -10.0913 -13.2912 
17482 5 18.7273 0.612358 10.4453 1.03329 -3.72905 -6.3721 
17560 5 18.5746 4.39351 10.2378 -0.986913 1.58024 -11.1065 
20011 1 16.7883 2.43064 10.1919 50.5707 45.9697 47.9514 
20028 1 16.5417 -1.33752 10.1131 23.7767 17.2142 10.3272 
17481 4 19.613 -1.37684 9.30614 -12.3226 -19.5097 -37.8225 
17800 9 20.2785 3.41394 7.96437 0.321202 -2.88915 -5.45984 
20002 6 16.2002 -1.21507 7.53432 -10.405 -7.54883 13.7955 
20044 7 15.5857 -0.449442 7.68688 4.35646 8.58226 -2.96713 
20043 7 16.3516 -1.12082 6.60323 0.283218 0.203196 -0.844872 
17377 6 19.8786 -1.6773 6.3322 0.245927 -0.139995 -0.0156159 
17415 7 20.5742 -1.92657 6.98281 2.88939 2.4933 2.09077 
14864 7 23.6314 3.83266 7.75133 5.58959 -4.67869 -1.44474 
14825 6 23.2988 2.969 7.82153 -9.31423 -3.84854 1.35633 
14863 7 24.1611 2.53617 7.90018 3.8796 -1.30121 -0.575401 
17476 1 22.5994 2.5974 10.2549 -65.1103 -40.9738 61.553 
14928 3 25.5679 4.59148 8.20809 -31.2669 -50.0203 -46.1911 
15246 9 24.7065 0.00657495 8.04332 7.99882 10.8053 19.9803 
14856 3 25.5405 0.383335 8.16649 -12.6506 -14.8408 10.8688 
14929 4 25.6618 2.47021 9.27814 -17.7747 -35.1907 -34.1344 
14851 2 25.7726 0.935136 9.6021 19.7845 -189.275 76.6503 
14926 2 25.8313 3.99121 9.61155 28.5686 145.866 88.7391 
14857 5 27.172 0.513951 10.0212 -9.82657 -11.9309 -21.0153 
14931 5 27.2703 4.30837 10.1061 -28.3679 -11.43 -17.6666 
14832 1 28.9014 2.41808 10.4207 15.2338 12.1681 53.2871 
14930 5 24.8007 4.37565 10.6576 12.5123 -4.58168 -12.8853 
14934 5 24.7275 0.511689 10.6576 4.63136 -4.07561 -1.96656 
17384 1 22.8636 -1.16741 10.5973 -1.46305 4.26982 -12.6187 
14848 1 28.7231 -1.43222 10.2624 14.7493 18.8195 -11.973 
14898 6 29.1786 2.45721 7.88738 -13.714 -15.3897 6.10603 
15247 9 26.3681 4.66526 7.72718 -1.61736 -1.09165 -15.3148 
14826 6 28.1456 -1.3901 7.71182 1.22746 -3.53934 26.8982 
14861 7 27.5228 -0.59177 7.7367 5.00607 5.87078 -2.29889 
14862 7 28.7608 -1.17174 6.9734 0.155593 0.0386761 -0.0620542 
17565 7 23.8543 5.62398 7.62904 12.5151 3.76472 -1.57213 
17491 7 23.3409 -0.830267 7.25909 0.0981048 0.0719155 -0.451783 
12347 6 29.4782 5.3719 8.00631 -15.3778 -7.21639 3.83516 
14939 7 29.2544 3.33895 7.63004 0.450492 -0.9262 -1.2009 
17492 7 24.1978 -1.77871 8.08715 8.20512 2.46759 -6.32033 
17450 6 23.2929 -1.42611 8.02021 -21.5941 -6.95716 19.2549 
25291 7 5.22591 6.53661 7.32751 1.20097 1.66139 -3.08109 
25290 7 3.82687 6.55555 6.86919 -0.685376 1.64941 -4.35203 
25253 6 4.33607 6.71227 7.63615 -9.67415 -11.6284 1.7852 
25517 7 1.84279 7.29014 5.50902 -0.0260864 -0.0605804 -0.549736 
25313 6 1.21101 6.45671 5.78137 6.06894 -5.05846 30.1263 
25362 7 1.19888 10.608 6.31952 -0.015561 -0.0100907 -0.0245275 
25275 1 4.36027 6.50413 10.1833 2.69492 12.372 7.42036 
25278 8 0.639374 6.49188 7.63496 52.9758 31.5259 9.59198 
22958 9 3.89074 10.3239 7.2783 -3.47614 1.5181 0.24756 
22732 3 4.70032 10.3548 7.96195 2.41485 -12.6786 13.9247 
25359 5 0.701437 8.49354 11.0939 -9.8847 -10.2612 -16.4106 
25356 5 3.08021 12.146 10.2169 9.66316 -0.184047 -13.2339 
25355 5 0.535314 12.2845 10.6518 -2.55518 -5.31693 -8.15185 
25354 4 1.48185 10.2856 9.54639 -13.9515 14.0198 -26.4067 
25353 3 1.39194 12.6945 8.41831 -13.5624 -8.89937 3.91954 
25351 2 1.63225 11.8296 9.72046 41.5571 49.5197 67.0558 
25286 5 2.93236 8.28049 10.0288 -5.63251 -15.9725 -18.5392 
25285 4 0.892127 7.85648 8.74192 -20.8576 -18.459 -4.56834 
25279 2 1.49492 8.71367 9.83417 17.1749 98.3184 74.8819 
25259 1 4.86194 10.2149 10.3927 7.50993 9.3501 51.5732 
25327 6 1.60703 9.7444 6.34125 2.33086 1.33083 -0.81917 
25363 7 1.38635 9.50649 7.2315 0.505248 2.74244 1.45012 
22807 5 6.5607 12.2849 10.8694 -15.3634 -14.329 -17.4859 
22730 5 6.65234 8.34528 10.5398 -4.51714 -14.795 -12.9748 
22726 8 6.48614 10.4372 7.49213 -1.44153 18.0191 -26.2714 
22761 6 7.05704 10.8316 5.66761 1.74536 2.49049 6.79163 
22733 4 6.9844 11.7221 8.61372 -10.9558 -12.7645 -2.83777 
22728 4 7.23016 9.05362 8.29312 -13.0109 -20.2873 -5.75533 
22953 7 7.91026 10.1976 5.3838 -0.0659026 0.100629 -0.651065 
22965 7 7.33207 11.8331 5.45166 -0.0481575 0.142184 -0.27573 
22741 7 11.5 7.01103 7.05421 2.6122 -0.0252536 -1.54774 
22700 6 10.8104 6.36788 7.23855 -16.1419 -2.17504 18.3803 
22636 1 10.9188 6.69179 9.82281 3.93602 9.05695 11.6608 
22729 4 7.48133 6.61374 9.11192 -11.5018 -8.82817 -28.0303 
22668 7 10.5831 8.59932 7.42923 1.9159 4.36204 -3.21324 
22725 2 7.70374 8.13304 9.39568 27.8687 31.9 97.6425 
22727 2 7.53968 12.6129 9.75953 17.1561 133.519 81.129 
22630 6 10.7174 9.56513 7.55044 -8.21915 0.7126 5.42151 
22667 7 11.6785 9.56 7.58776 1.27393 0.734948 -1.35202 
20110 3 13.3722 8.00482 7.87861 -11.0244 -1.15319 -3.56072 
20176 4 13.3404 12.979 8.33811 -6.57747 -6.99552 -4.17503 
20177 4 13.5478 10.5013 8.95979 -6.20963 -0.374092 -16.3481 
20173 2 13.7057 11.9908 9.40771 33.5553 -4.43873 77.0986 
20105 2 13.7244 8.93675 9.12343 -1.78346 6.90413 84.8767 
20178 5 12.5598 12.2564 10.4158 -7.80728 -12.4963 -22.5164 
20183 5 12.8988 8.51128 10.3587 -3.73207 -11.1251 -6.90426 
22734 5 8.97942 12.4092 10.1072 -12.5327 -12.5177 -17.4561 
22723 1 10.5486 10.4168 9.97488 -2.99449 4.24464 9.80244 
22731 5 9.11607 8.33188 9.85191 -15.6767 -24.3588 -21.965 
20354 9 13.8366 7.1662 8.02076 -1.08362 -12.3086 -25.5028 
17489 7 15.3685 7.53149 7.27379 -6.20623 -2.26202 -3.76017 
17490 7 16.4114 7.08597 6.51817 -0.225327 0.0341226 -0.310125 
17451 6 15.9423 6.78743 7.29642 -18.728 -17.2796 17.2648 
17555 4 19.5148 6.40419 9.24816 -10.8828 2.45267 -18.5957 
20102 1 16.4765 6.46221 9.86905 10.9344 0.185922 18.2949 
20179 5 15.0791 12.3713 9.86379 2.64829 3.68992 -11.4121 
20111 5 15.0953 8.51182 9.52882 -26.3715 -13.7882 -14.6767 
17802 9 19.4832 11.878 7.51898 -0.106198 -0.0991214 0.17473 
17554 3 19.6317 8.68088 7.9737 -1.93327 -5.33372 6.0354 
17801 9 19.3812 9.57046 8.10065 0.685278 12.1919 6.49963 
17558 3 19.3121 11.5602 8.35726 -4.22401 -2.07571 -0.704138 
17552 2 19.7279 7.97853 9.40881 25.4249 58.228 60.0481 
17553 2 19.7446 12.5897 9.5152 43.1428 43.4262 69.8283 
17559 5 21.2085 12.1329 9.83297 6.86751 -0.557005 -10.6729 
17557 5 21.1128 8.33065 9.93016 0.933099 -11.5651 -15.4338 
17556 5 18.49 8.44005 10.194 12.5701 -4.00635 -6.76169 
17631 5 18.754 12.2185 10.6826 2.19463 -5.6815 -4.22503 
20084 1 16.8199 10.2664 10.3615 -10.74 -3.87181 -1.21989 
17566 7 22.7737 6.49197 7.09029 0.0940056 0.0185598 0.0523994 
17525 6 23.2369 6.30614 7.97014 -29.912 -6.06738 17.1771 
15249 9 26.4199 12.3989 7.50271 0.842317 0.688348 0.248302 
14924 1 28.8784 6.30371 10.2599 24.907 20.2478 5.22896 
17459 1 22.8153 6.36449 10.4136 -82.8309 -67.9759 39.6219 
17550 1 22.6813 10.1773 10.109 19.0403 17.738 8.236 
15248 9 25.0074 7.30471 8.25379 6.71194 8.88836 8.64024 
15002 3 25.5553 12.1132 7.86039 -4.80123 -8.82221 8.98595 
14932 3 25.8534 7.69566 8.37038 -4.63185 -4.21726 1.44728 
15003 4 25.6929 10.0578 9.40228 -9.10296 -5.88726 -22.8049 
15000 2 25.8234 11.5586 9.33827 29.586 102.779 70.7512 
14927 2 25.9265 8.52626 9.67582 40.1517 66.4839 71.1876 
15005 5 27.2586 12.0307 9.65026 -1.77304 -12.7022 -16.7365 
14933 5 27.3368 8.19806 10.2714 9.42433 -13.9027 -17.328 
15004 5 24.794 12.1885 10.2281 1.02274 3.26265 -12.1812 
14907 1 29.0423 10.186 10.3202 23.5512 18.7932 21.7436 
15008 5 24.7476 8.17989 10.6591 15.6975 -0.309576 -2.46901 
14899 6 29.4402 9.94521 7.67407 -3.27515 0.0253904 5.27254 
17637 7 24.0129 13.1402 7.48134 1.61081 0.651203 -0.182181 
25427 5 0.471403 16.2254 10.9577 6.05411 -3.50862 -5.14375 
25424 5 3.05777 19.7432 10.2643 -15.0705 -6.44121 -9.53886 
25423 5 0.62854 19.9386 10.7649 4.1731 -4.3801 -9.72199 
25422 4 1.53223 17.8586 9.5283 -9.7451 7.09101 -14.2333 
25421 3 1.35286 20.1653 8.46116 -3.21914 -2.58902 -0.140456 
25419 2 1.68921 19.4163 9.80763 -41.5953 140.104 64.1811 
25358 5 3.0433 15.9649 10.3935 6.1735 -0.975592 -11.7421 
25352 2 1.62447 16.359 9.9389 57.3019 1.86551 37.2001 
25333 1 4.76049 17.9652 10.8964 -6.20143 13.9314 -41.2895 
25357 3 1.27516 15.4524 8.77037 -12.359 -17.2393 19.2637 
25460 9 1.6173 15.8283 7.87293 0.099431 0.362861 4.2257 
25349 1 4.58657 14.1062 10.6957 7.15653 16.2097 0.0920282 
22803 5 6.49129 16.0975 10.8756 1.37927 -0.585717 -0.111888 
22875 5 6.46084 20.071 11.1158 20.155 8.27625 8.28879 
25459 9 1.48999 13.6574 8.56205 -1.38518 4.75993 -4.25383 
22801 3 7.03055 16.5942 8.55987 -2.28313 -6.93966 4.18238 
2179 7 -0.387305 20.8468 8.22815 14.3868 2.26691 -6.26264 
22805 3 7.32975 19.3599 8.91011 -8.5874 -8.74407 25.3794 
22908 9 7.54595 19.9046 8.12021 0.00960558 0.260509 6.55551 
22774 6 7.84223 14.1301 6.46407 2.00329 1.25554 1.979 
22907 9 7.21638 17.5067 8.66763 -0.0379664 20.2858 1.82953 
22800 2 7.69826 20.1918 10.1825 72.281 58.036 39.1613 
22810 7 9.52718 17.6319 7.67339 -2.03809 0.947969 -2.02383 
22775 6 10.3724 17.5576 8.1234 -18.0519 -9.06821 6.37951 
22811 7 11.0269 17.744 7.42304 6.08383 1.0569 -1.27392 
20249 3 13.6146 20.1923 8.5115 -17.5782 -16.1362 19.6142 
22799 2 7.50164 15.6895 9.76752 1.99703 21.455 72.0519 
20181 4 13.1648 15.598 8.7498 -9.6171 -32.0642 -11.8877 
20250 4 13.59 17.8559 9.69511 -14.0196 6.57212 -27.6484 
20247 2 13.6446 19.4223 9.89672 3.97639 29.8424 68.1584 
20175 2 13.7411 16.3389 9.95052 44.5189 116.432 87.7883 
20255 5 12.7826 16.0392 11.1348 -2.70214 -11.3649 -15.6113 
20251 5 12.5994 19.887 10.8751 -0.924335 -0.23262 7.82802 
22797 1 10.5866 17.8329 10.6706 3.4434 -1.51911 21.2884 
22804 5 8.85928 16.0465 10.2629 -4.56601 -11.2251 -14.2367 
22806 5 9.15709 19.6726 10.6518 26.4388 -12.4635 -11.567 
20209 6 12.874 15.0323 5.7533 0.471597 -0.371795 1.52937 
20174 8 12.7095 14.4625 7.54514 27.3931 11.1016 -53.5289 
22802 4 7.35344 14.1712 9.46207 -20.9814 9.34143 -29.3564 
22707 1 10.7485 14.2517 10.2767 12.5904 10.7037 4.00886 
20180 3 10.8086 14.0423 7.95232 18.1723 -8.90858 5.00968 
20260 7 13.0324 18.8856 6.99744 0.134273 1.33697 1.25263 
20261 7 12.9162 17.3666 7.33817 -0.514351 10.6571 5.63352 
20401 7 13.4229 15.9899 5.62814 -0.16026 0.312906 -1.28478 
20406 9 10.0189 14.4108 7.4707 -1.25452 2.85765 -2.4828 
20413 7 11.9327 15.1884 5.26927 -0.0683165 -0.0245434 -0.439235 
20222 6 12.7014 18.0477 6.67459 -0.754034 0.702052 -0.9545 
22813 7 7.7456 15.0607 6.62462 -0.0697083 -0.048258 0.0568638 
22812 7 7.44152 13.8113 7.30537 0.755267 1.44663 6.38639 
17861 7 18.0327 18.1656 5.18632 -0.0414439 -0.0258321 -0.195371 
17849 7 19.1146 19.332 5.5722 -0.0522842 0.152173 -0.563496 
17657 6 18.7692 18.3451 5.88217 -4.8801 -2.6568 15.0434 
20252 5 14.9691 19.7344 10.5394 -8.37841 -13.7454 -17.7898 
20182 5 15.2166 16.0409 10.213 -4.04556 -20.5424 -13.9699 
17622 8 18.5634 18.0799 7.75046 32.2389 27.8862 -14.0155 
17854 9 15.9449 18.6012 8.0719 -0.284877 2.02869 -3.19206 
17628 3 16.7563 18.0742 8.25458 4.03257 -10.0164 9.43421 
17624 4 19.3217 16.6826 8.46567 -7.80134 -11.5766 -3.8249 
17629 4 18.9827 19.4332 8.85904 -13.8571 -12.2795 1.2208 
17621 2 19.6951 15.6526 9.54627 46.434 95.7953 82.7626 
17623 2 19.5501 20.2671 10.0023 54.3536 26.095 73.0951 
17630 5 21.0316 19.7719 10.2793 12.434 -2.60787 -14.951 
17627 5 21.1919 15.89 9.96206 1.03679 -17.8584 -16.6314 
20155 1 16.8424 17.9752 10.6946 2.38725 10.9531 -15.5305 
17626 5 18.7672 15.8963 10.7355 -8.81249 -8.79444 -11.4218 
20171 1 16.7158 14.1373 10.3208 5.47274 6.51314 -22.4102 
17625 4 19.606 14.0957 9.12525 -6.05194 7.95144 -12.0002 
17564 7 21.4906 17.2833 7.58657 -0.562374 1.57064 -1.12766 
17703 5 18.6795 20.0258 11.2014 -15.3093 -12.668 -20.8683 
17709 7 19.905 20.6273 7.34679 2.92636 4.95697 4.39858 
20259 7 15.568 20.8847 8.4035 12.2036 3.55288 -2.26548 
17526 6 22.4132 17.452 7.70597 -7.70448 -6.71446 17.6254 
17563 7 22.8092 16.6576 7.3521 0.272167 0.358691 -1.86303 
17619 1 22.5682 17.9268 10.3236 11.3486 12.5393 -16.6979 
15250 9 25.4259 16.554 7.3496 3.23373 4.22345 70.4891 
15006 3 25.6058 15.7572 7.92658 -17.2849 -12.4205 55.2994 
15072 4 25.3173 20.4252 8.40544 -13.1076 -7.90009 -2.68529 
15073 4 25.9599 17.9542 9.15621 -16.0671 5.9303 -35.2557 
15069 2 25.8295 19.4844 9.52152 47.7683 196.672 66.9772 
15075 5 27.2671 19.8707 9.91392 4.8478 -4.26596 -14.2596 
15001 2 25.8934 16.4473 9.39988 32.0902 22.5166 33.3691 
15007 5 27.2951 15.9854 9.7832 -0.576577 -10.5042 -15.7051 
14980 1 29.1857 17.8209 10.1444 -13.1352 -20.7003 15.5827 
15074 5 24.8028 19.6389 10.6176 -5.81103 -5.43614 -18.6951 
15079 5 24.8396 16.1163 10.4638 8.62021 -3.49741 0.836151 
12533 7 25.4571 18.3754 7.23091 -0.366495 4.48116 6.06413 
17532 1 22.9834 14.1035 10.1761 9.91287 12.5496 9.04054 
14998 1 28.6373 13.9834 10.0874 20.1709 24.9296 12.9686 
12492 6 25.1645 17.9196 6.43544 -1.27768 -1.71837 -0.944543 
12532 7 24.2391 17.8074 6.45162 -0.0694476 0.0118334 -0.220561 
17636 7 24.2982 14.6547 7.77674 3.15256 -4.65584 -4.50249 
17597 6 27.3956 19.7327 6.47718 -16.3854 -1.06134 0.913791 
17635 7 27.0344 19.9354 7.31032 6.35067 1.20441 -2.2941 
17596 6 23.5563 13.9987 7.66239 -11.4222 -1.60973 4.51308 
14974 6 28.7308 14.0837 7.53935 -5.78643 -10.9808 7.07175 
17634 7 26.9707 18.9124 6.11254 0.289102 0.569546 -0.152011 
15084 7 28.6931 18.2675 6.90767 0.595334 2.77244 -1.52117 
15012 7 28.1952 14.867 7.30744 1.77392 1.81212 -1.70501 
15044 6 29.2899 17.8272 7.55162 -18.4921 -15.4506 13.9861 
15011 7 29.5706 14.1102 6.99075 5.05681 0.881961 -0.229967 
25461 9 1.63963 21.1191 8.56579 -0.437522 9.05304 -5.90729 
25417 1 4.459 21.7465 10.9217 -16.5657 -19.8854 -25.6286 
24923 5 0.754769 27.5218 10.9484 5.69646 1.57097 -2.90908 
25425 3 1.35108 22.98 8.77836 -10.6275 -8.44764 17.7301 
24927 5 0.559259 23.61 11.1153 15.4321 -1.52067 7.97886 
25426 5 3.10363 23.8017 10.4009 3.67759 -9.35505 -9.15187 
25420 2 1.64879 23.9265 10.0018 36.0662 98.3967 59.1716 
25401 1 4.97038 25.5329 10.7242 10.752 5.22002 -8.60933 
24924 5 3.18735 27.1766 10.4054 -6.08618 -6.20441 -13.5808 
24922 4 1.38256 25.4386 9.75254 -16.5776 10.218 -16.9753 
24919 2 1.7823 26.9563 9.95451 1.51183 144.971 59.3281 
24921 3 1.55556 27.7248 8.56562 -3.27718 -0.897408 8.40766 
25462 9 1.60156 23.3783 7.96981 -0.0550374 0.120256 1.82117 
22871 5 6.64021 23.6959 10.9095 4.61467 -4.90993 -4.41467 
25451 9 2.36751 27.8615 8.13061 0.0553384 0.479429 1.55187 
22375 5 6.78156 27.3777 11.2762 1.87369 -3.86011 -3.64807 
20355 9 13.7553 21.1037 8.67011 -2.58396 21.3629 -0.805666 
22873 3 7.36095 26.8242 8.94079 -1.83414 -2.8826 22.3071 
22910 9 7.83453 27.1872 8.16884 0.0174959 0.301589 5.20248 
22881 7 10.5673 22.2037 7.78641 0.175329 0.151604 -0.590259 
22880 7 12.0072 21.7432 8.22322 12.0838 4.44811 -4.53976 
22869 3 7.56442 24.0265 8.5961 -0.8671 -1.29994 0.699804 
22842 6 11.0399 21.8185 8.50693 -11.6089 -8.63406 2.30473 
22909 9 7.42422 24.9915 8.72358 -0.273784 9.49124 -0.574703 
22870 4 7.80675 21.6814 9.76784 -9.9471 13.354 -15.0088 
22781 1 10.8959 21.6885 11.0129 -25.9794 -19.3929 19.8422 
22868 2 7.76545 27.7412 10.1816 38.7307 97.8902 39.881 
22867 2 7.78902 23.2324 9.92461 54.6591 190.389 74.1355 
22381 7 12.0152 26.341 8.4485 11.0817 9.216 -1.46646 
20253 3 13.4682 23.4016 8.82795 -29.392 -27.5119 7.2095 
22380 7 10.8121 26.2531 7.54966 0.0749637 0.106157 0.09575 
22342 6 11.2091 25.8188 8.3988 -19.4613 -2.74378 29.961 
20317 3 13.3219 27.8427 9.08682 -10.4381 -13.3261 -8.60576 
20248 2 13.7696 24.0294 10.2263 9.4681 3.35884 108.854 
20318 4 13.624 25.5447 10.0164 -29.6416 -19.3163 -43.5401 
20315 2 13.7788 27.0543 10.3348 52.9083 -13.5436 83.8415 
22865 1 10.6865 25.3992 10.9226 11.8857 11.3949 13.6567 
22872 5 9.17462 23.6871 10.462 5.28678 -15.7223 -14.2024 
22874 5 9.24947 27.6706 10.5948 6.66859 -9.69539 -10.3696 
20356 9 12.5954 23.6209 8.49206 10.2855 3.85561 -9.93619 
25431 7 14.1509 26.52 7.83751 1.06466 4.73777 6.62702 
20323 5 12.8525 23.6161 11.429 1.57506 -7.9328 1.13129 
25430 7 14.093 24.9955 7.86813 1.67269 4.74618 10.3438 
25395 6 14.4016 25.7329 7.27378 -0.139335 0.090594 -0.157187 
20258 7 15.2294 22.3163 8.12146 1.3588 0.135178 -1.3619 
20223 6 16.0015 21.7513 8.2238 -7.32463 -1.25678 8.90375 
20245 1 16.5342 21.695 10.8038 15.9486 20.4766 26.4736 
17698 4 19.4354 21.7483 9.56107 -12.3327 -3.78584 -28.5828 
20320 5 15.2214 27.4242 10.856 4.32583 -11.3754 -15.2048 
20254 5 15.1801 23.5949 10.561 -15.8098 -11.3881 -20.1521 
20329 7 17.2434 26.6466 8.28058 4.03027 3.21631 -3.5716 
20328 7 16.0419 25.8023 7.61998 1.7095 -0.0136734 -0.071965 
17803 9 18.6355 24.4714 8.19816 9.15882 9.23516 -0.61251 
20290 6 16.6573 25.8385 8.42977 -27.2079 -4.84965 7.90899 
17697 3 19.4666 23.9299 8.24968 -7.50408 -15.5876 7.69357 
17701 3 18.7572 27.5768 9.07536 -11.5088 -29.5213 -3.48413 
17695 2 19.6311 23.298 9.64847 3.036 6.05191 79.7759 
17696 2 19.6976 27.9701 10.2409 34.0699 100.774 89.2298 
17700 5 20.9899 23.6351 10.1729 -17.5727 -7.66706 -18.9841 
17702 5 21.0953 27.3466 10.1236 7.75704 -13.6555 -20.1857 
17699 5 18.7076 23.7838 10.7613 -3.34869 -4.35228 -2.16708 
20229 1 17.0048 25.6018 10.9426 17.6666 15.0892 -22.1385 
17708 7 20.0702 22.1005 7.0657 -0.239218 1.4113 0.809761 
17670 6 20.1319 21.2549 6.64674 -0.747821 0.845045 -1.31443 
17707 7 20.7868 25.2363 7.6314 4.67359 4.92351 -0.0750787 
17706 7 21.1787 26.5559 8.43819 0.12113 6.53288 6.86655 
17671 6 21.5933 25.7538 7.94146 -0.385606 -4.85863 5.17811 
17804 9 18.1596 28.2261 8.79174 4.32503 -0.366864 -3.01668 
15302 9 22.12 22.0167 7.2663 -10.7548 2.29387 -0.624182 
15082 7 28.9341 21.4367 6.98265 -0.110076 1.91109 -3.01981 
15309 7 26.1711 21.1856 5.56242 -0.0512089 0.354403 -0.580407 
15297 7 25.7773 22.9358 5.36905 0.0247836 0.422396 0.0403701 
15076 3 22.8653 21.7306 7.945 5.10115 -10.3158 6.69977 
15105 6 25.4296 21.9972 5.7434 2.5129 2.77847 8.72806 
15067 1 28.5009 21.8246 10.3102 7.40049 14.2948 27.9902 
17603 1 22.8719 21.8054 10.3091 41.4742 31.0934 62.8197 
15070 8 24.6898 21.8654 7.53391 8.80958 21.9973 -5.31077 
15157 7 24.761 24.7113 6.5409 0.0876162 1.45203 -2.27596 
17693 1 22.4585 25.6458 10.3024 34.9402 46.6477 73.2294 
15118 6 24.3516 25.0692 5.80024 0.216298 -0.0181837 -0.0779138 
15156 7 23.4675 25.4068 6.08223 0.347959 0.0664424 -0.0172801 
12750 9 28.7793 27.0604 8.02173 -18.149 -1.28919 -3.37921 
15145 3 25.8709 28.1424 8.32624 -25.3108 -10.2406 23.7854 
15077 4 25.2347 23.1977 8.50469 -14.9201 -21.7738 -11.8825 
15146 4 25.5466 25.6818 9.29943 -8.10797 17.7667 -16.4385 
15143 2 25.8227 27.2278 9.63665 34.7192 58.9126 45.0357 
15071 2 25.6377 24.1622 9.58877 43.992 136.895 70.2788 
15078 5 27.0823 23.775 9.8664 3.3107 -1.44129 -11.929 
15148 5 27.2019 27.5255 10.2775 11.2063 -13.4445 -15.8752 
15051 1 28.9278 25.6837 10.4438 -0.0801889 13.1541 29.1258 
15147 5 24.7278 27.7419 10.5663 3.57629 -2.22948 -8.38066 
12524 3 29.1596 26.0649 8.01414 -11.2754 -1.37456 8.64116 
15045 6 29.2043 21.7754 7.82857 -18.6201 -10.9968 5.10577 
15251 9 25.5134 27.6474 7.63837 -0.0765158 -0.290263 15.493 
15151 5 24.6677 23.8201 10.7274 -4.96629 -8.04841 -15.0962 
25272 7 0.477899 4.33404 16.2025 8.275 -0.756276 14.4064 
25198 5 4.5419 2.55475 12.6561 -16.5639 -9.48032 -12.2138 
25195 5 4.3158 -1.09258 12.7632 -0.234216 -3.30954 3.2607 
25511 9 -0.0312612 0.727694 16.1375 -17.4876 4.43888 1.88837 
22635 1 6.05896 0.692999 12.8525 -10.7392 2.20913 -9.8848 
25268 5 2.06322 2.89899 12.9931 -0.444512 -11.7868 -21.8348 
25258 1 0.250924 4.4912 12.7638 4.25828 -1.489 10.8567 
25207 1 0.476342 0.786529 13.0733 12.0588 34.4145 19.2331 
25191 2 3.47612 3.03985 13.5769 20.6014 152.375 59.1536 
25263 4 3.57926 4.53329 13.9916 -26.1593 9.732 -31.5952 
25197 4 3.26023 2.0922 14.7531 -16.7571 -28.8062 -5.51416 
25192 4 3.04502 -0.482259 14.848 -10.2539 -18.7805 -7.43866 
25196 3 0.692764 0.846546 15.3427 2.15181 -15.6378 8.6001 
25190 8 2.50559 0.867387 15.7936 -24.3302 1.63579 -34.9593 
25240 6 2.62595 0.688325 17.7287 3.85415 -22.0317 25.6699 
25519 7 3.47184 0.230542 18.1773 8.16938 5.9996 -8.84358 
25507 7 2.5148 1.58099 18.3318 -0.862055 9.01512 -7.59378 
22649 6 3.85325 4.17683 16.8013 -48.2206 -6.46824 -62.4964 
25308 6 -0.127731 4.41836 15.3569 -22.9659 -4.81079 29.3517 
25270 6 1.39614 4.82307 17.5914 -22.5554 -2.42613 -5.22845 
25310 7 1.60429 5.39977 18.3622 -1.4174 14.4315 6.61982 
22655 1 6.37544 4.67075 12.8239 3.97723 18.3886 5.33801 
25194 5 1.89442 -1.62182 13.1754 -0.598963 -14.3141 -18.7942 
25189 2 3.31878 -1.5892 13.8009 48.3426 -30.0715 94.3459 
25309 7 2.29791 4.51785 17.2213 11.4629 -2.17671 -5.81036 
22683 6 6.21474 1.46106 15.3097 -17.7509 -16.559 8.42711 
22684 7 3.63579 3.42305 16.2168 -1.53107 2.19159 3.07382 
22644 3 6.84431 4.40688 15.25 13.6256 -16.9643 27.7403 
22759 7 4.37817 4.86417 18.4233 4.59916 1.1224 14.1681 
22685 7 3.99879 4.9523 16.1931 -0.747238 13.5753 9.74914 
20062 7 5.38285 1.87337 18.4469 9.22263 8.52365 -4.52552 
20061 7 5.4005 3.27957 17.8845 11.4318 6.191 2.08795 
22650 7 5.93756 1.67206 16.252 2.30779 2.65133 12.3375 
20023 6 6.02812 2.57372 18.1499 -9.71534 -8.72072 -1.32662 
25236 7 0.475885 0.224258 18.211 5.62871 3.9507 -5.71717 
22717 6 5.12291 5.06389 19.1233 -2.13645 -21.9699 4.14437 
25472 9 2.86407 3.22981 18.943 0.546394 4.26512 -29.3249 
22959 9 6.18305 4.45184 16.0935 -5.34554 4.69116 1.89542 
22651 7 6.68162 2.2428 15.0516 3.95072 4.48784 -7.94787 
22652 7 6.71868 -1.10504 15.5506 2.73195 4.83479 -2.71984 
17856 9 17.4397 -1.71526 19.2264 -10.8303 0.544169 -1.9845 
25378 6 -0.330751 12.247 15.7836 -18.1436 -8.80319 2.42787 
25377 6 -0.27963 8.41518 15.7117 -31.9717 -18.6662 -5.7898 
20022 6 13.969 0.930974 17.6493 -1.75507 -35.354 -3.51496 
20101 7 8.66028 1.56093 17.5879 1.62798 6.22004 -2.70304 
22931 9 9.7427 -0.606509 15.7329 2.31259 4.31754 75.1539 
22643 5 10.3472 2.57234 12.1955 -2.91539 -4.60458 -9.3999 
20083 1 12.0539 4.57824 12.2941 24.3414 14.9387 26.2873 
22642 5 7.78438 2.32799 12.6693 -2.0171 -6.09539 -21.6242 
22572 5 10.3915 -1.19034 12.4814 0.846373 -7.42452 -2.27182 
22647 5 8.01803 -1.15376 13.3887 15.9674 -12.5664 -19.0219 
20029 1 12.4935 0.818447 12.5759 5.93294 14.8818 -8.6861 
20095 5 13.8672 2.81253 13.0198 -13.1906 -11.3591 -14.7208 
22637 2 9.23854 2.21284 13.1776 48.1309 171.02 71.2594 
22565 2 9.47766 -0.798971 13.6553 39.843 36.0078 44.149 
22641 4 9.6135 0.790931 13.697 -25.5973 22.3633 -27.6499 
22640 4 9.10375 3.21619 14.2882 -13.1197 -22.4505 -13.5176 
20060 6 12.2876 0.872482 15.1746 -17.9531 -10.818 8.13161 
20025 7 11.4019 0.607982 15.2943 -1.41573 2.27471 -6.05053 
22638 8 8.66898 4.47713 15.4117 9.57067 28.927 11.3493 
20024 7 12.7105 0.707283 16.039 2.45488 4.06695 1.87563 
22688 6 9.49994 4.31903 17.1525 1.30603 -2.25109 24.3179 
20130 6 8.97588 0.835709 17.0188 -8.0389 -3.90647 -0.723587 
20016 5 13.8732 -1.10957 13.0216 4.24755 -14.9207 -19.4528 
20100 7 8.88508 1.24137 16.194 0.919909 1.29059 -7.70795 
22967 7 9.06136 3.71171 17.9523 -1.35258 1.88483 -9.18571 
22571 3 10.0232 -1.24878 15.0491 -21.6244 -21.2207 32.3041 
20064 7 13.8008 0.054689 17.8833 -3.37348 2.69508 4.77821 
20063 7 14.4875 0.814925 16.852 -4.03119 4.6101 -1.07516 
22918 9 8.29579 -0.505606 18.9336 -0.236845 1.69882 -37.0973 
20096 6 11.213 0.579259 18.7364 -20.9162 -11.1623 3.41023 
20135 7 12.0036 0.449537 18.1433 2.8176 4.13889 -0.256958 
22919 9 7.54616 2.6901 18.9635 -17.556 2.57749 -90.1764 
20366 9 14.5122 2.24861 18.9175 3.34221 19.4485 40.2537 
22955 7 9.73856 5.23702 17.6597 -0.339361 7.06033 -3.96192 
20098 7 11.6413 4.44179 18.2159 1.3513 1.19928 -2.48215 
20134 7 10.5498 0.835659 18.0276 10.3179 3.22709 5.03686 
15272 9 27.7544 -1.71167 15.857 -0.166433 4.17072 -24.8741 
20131 6 11.6992 4.25502 19.1572 -14.1337 -8.96216 -0.141571 
20051 3 14.5624 -1.31167 19.2465 -18.3355 -47.2408 19.4482 
20379 9 16.5072 2.29053 15.2547 -0.361908 -0.869359 -29.1051 
20378 9 15.4007 0.0444891 14.8487 1.34399 63.1397 22.452 
20012 2 15.2359 -1.61828 13.5115 14.5004 -23.8796 76.4434 
17469 5 19.9364 -1.30131 13.4326 -7.21254 -11.7208 -11.641 
20017 5 16.2815 -1.21496 12.5395 9.19518 -0.854682 -6.72796 
20020 5 16.2894 2.4578 12.6312 -9.39009 -6.66965 -14.8245 
17477 1 18.4308 4.50707 12.7514 41.7477 43.8585 55.3582 
17458 1 18.218 0.637135 12.871 51.872 41.2586 15.5579 
17464 5 19.9587 2.61017 13.0923 -7.6054 -13.4471 -18.3402 
20014 3 15.3481 -0.927596 14.9324 -17.5419 -1.82719 32.6185 
20013 2 15.2355 2.86552 13.6686 16.6741 -27.2315 60.3451 
20089 4 15.4847 4.41259 13.8828 -22.4267 -7.68216 -26.3735 
17460 2 21.2934 2.30374 13.8302 67.5375 61.0617 93.4622 
17386 2 21.2555 -0.760946 14.0881 56.2035 83.3932 35.1532 
20019 3 15.5633 2.18755 15.0152 -7.13687 -13.1268 -5.94853 
17466 6 18.4823 1.27393 15.4056 -11.3156 -12.3433 21.5379 
17494 7 19.3502 1.32035 14.894 13.6488 3.69868 -8.81548 
17493 7 18.7792 1.71203 16.2535 4.02649 12.4653 -1.33626 
17471 6 19.1571 3.28583 17.0919 -25.3852 -17.6978 -39.9135 
17510 7 20.0607 3.37546 16.6948 14.2593 -0.463834 16.0816 
17509 7 19.3441 2.79847 17.8898 1.93172 -1.46808 -3.83622 
17463 4 21.2166 0.803669 14.1626 -23.3508 -2.39059 -38.2136 
17508 6 17.8224 5.08861 15.2086 -23.0707 -28.2003 11.2314 
17473 7 18.2016 4.64456 15.9797 5.3808 4.77666 -3.10665 
14959 7 20.6946 -0.285056 18.2646 1.94478 6.61341 7.11546 
14960 7 20.8666 1.0999 17.7095 -1.32822 3.3902 2.11427 
17391 3 21.6812 -1.29248 15.4483 -23.3419 -46.4361 -10.9852 
17825 9 21.4268 -0.660489 16.1523 -5.59054 3.1039 -2.36139 
17462 3 21.2002 3.20264 15.106 -26.9769 -40.256 -2.93695 
14918 6 21.236 0.198556 17.6152 5.05326 -8.072 -11.4388 
17826 9 21.053 4.08142 14.8645 -1.29007 -35.5869 -17.222 
17544 6 17.2458 4.52073 18.5683 -23.7858 -10.429 -1.02 
17582 7 17.9103 4.53947 17.8382 8.23383 3.46771 0.823363 
17456 7 16.2519 -0.233319 19.3336 23.2867 -8.95312 -1.83994 
17457 7 16.0913 1.13571 19.1667 12.863 -0.322507 -2.65945 
12441 6 29.5882 19.4515 18.941 -20.907 -13.5566 -1.95185 
17503 6 16.8563 0.526503 19.179 -13.1412 -9.58844 11.9831 
17472 7 16.8475 4.86016 15.1928 0.504419 -1.09395 -16.7285 
17583 7 16.6581 3.79039 18.2318 8.59439 5.67951 0.136792 
17474 7 16.9043 -1.92534 15.5927 15.7916 4.55373 -2.94892 
20367 9 14.4127 4.7956 18.9449 1.39066 14.8727 -1.65773 
14905 7 22.4823 4.98754 18.3728 9.30112 3.82756 -3.10791 
12293 7 29.363 0.25885 15.5724 12.8495 3.84371 -3.71768 