ITEM: TIMESTEP
570000
ITEM: NUMBER OF ATOMS
25517
ITEM: BOX BOUNDS pp pp ff
-3.8959205201285124e-01 6.0088135642019459e+01
-1.9452389155355383e+00 5.9115524189537531e+01
-1.2206056431032383e+01 1.1390111600702880e+02
ITEM: ATOMS id type x y z v_stressx v_stressy v_stressz 
25292 7 5.89857 3.03966 7.5916 -2.47522 -8.48018 -6.25494 
25293 7 5.98077 1.53035 7.7064 -1.90811 -5.89465 -1.91472 
25252 6 5.35811 2.25094 7.51796 -6.33244 -3.26288 0.224845 
25287 5 0.61597 0.755495 10.7564 7.86191 -1.57408 4.82662 
25283 5 2.94291 4.2301 9.842 11.0992 6.54205 -12.9948 
25281 4 1.3887 2.44216 9.07367 -12.8643 1.99735 -16.5637 
25280 4 1.07853 5.00258 8.46007 -12.6927 -8.47349 -6.52231 
25277 2 1.45655 3.94107 9.49571 50.6389 36.0413 79.6117 
25215 5 2.99957 0.588718 9.72621 -14.4731 -10.063 -12.0145 
25209 2 1.59287 0.935181 9.44522 7.3169 -57.8714 73.4583 
25188 1 4.8243 2.58953 9.97468 5.47021 1.33338 14.561 
25214 3 0.796635 0.0137284 8.44439 -2.14921 -4.56606 1.97808 
25282 5 0.520916 4.37471 10.6565 -15.0751 -14.3361 -18.3983 
25458 9 1.40812 -0.435335 7.83607 0.0193529 2.08995 1.7316 
25206 1 4.52732 -1.17961 10.115 34.6853 37.9205 20.1916 
22660 5 6.52822 0.875659 10.2203 -1.38719 -5.7424 -17.0047 
22735 5 6.623 4.87348 10.5536 2.46523 -9.3715 -15.7632 
25505 7 1.83983 5.65447 5.50835 -0.05521 -0.160796 -0.296139 
20365 9 14.8377 -1.86536 18.7942 -0.243076 7.94763 35.2296 
22662 3 7.17647 4.29529 8.22411 -12.1153 -23.1857 -18.0577 
22658 3 7.30314 0.346889 7.89736 -14.912 -15.205 -11.2414 
22905 9 7.65252 -0.485879 7.46068 0.0196296 -0.416334 -4.49337 
22906 9 7.50322 4.57024 7.35908 -2.74263 4.30417 9.54913 
20115 7 11.1372 2.292 6.49758 0.444213 -0.00693502 -1.16084 
22656 2 7.7059 0.365729 9.40584 22.21 73.9448 63.5791 
20116 7 12.1136 2.88755 7.40659 19.6143 6.69886 2.55863 
20078 6 11.1398 2.86581 7.23657 -15.8789 -11.6366 1.85517 
20106 3 13.741 4.72985 7.46261 -15.7187 -11.0988 42.2359 
22657 2 7.60419 5.1024 9.41016 54.4362 -15.7192 23.5132 
20036 3 13.619 0.47741 7.57109 -16.5152 -19.4459 16.7099 
20107 4 13.6664 2.6833 8.8298 -17.9085 -14.1965 -33.9449 
20104 2 13.8784 4.18168 8.97251 31.5749 36.7451 95.012 
20031 2 13.7132 1.1448 8.96008 62.0962 163.963 13.6511 
20108 5 12.6966 4.70757 9.81807 14.6684 11.9292 1.54882 
20112 5 12.4932 0.846951 9.91178 10.9173 -0.395661 5.45657 
22654 1 10.4859 2.78478 9.68506 11.2163 10.092 10.8996 
22661 5 9.03983 1.11007 9.56315 -7.52407 -6.45161 -16.325 
22663 5 9.10858 4.7108 9.73761 4.35777 -12.8642 -15.6204 
22563 1 10.886 -1.13469 10.1589 -0.505362 -0.27326 -18.0278 
22659 4 7.7627 -1.12896 9.68153 -9.45216 -34.9884 -35.4231 
22629 6 11.3751 -1.065 7.76545 -16.7985 5.05088 2.64345 
22669 7 11.9249 -0.207968 7.44815 1.29661 5.20689 -1.32811 
20352 9 13.8605 1.22514 6.87465 0.721824 12.515 14.655 
20189 7 14.2777 3.18994 6.51456 0.290747 13.5186 8.33557 
20353 9 14.543 5.23857 7.22704 7.75527 13.213 16.8199 
20148 6 14.5671 2.45013 5.87332 0.144025 0.057645 0.100295 
22740 7 11.2703 5.5881 6.8279 3.28262 1.48044 -1.17671 
22738 7 8.76742 5.41578 5.90114 -0.684982 0.70068 -1.35755 
22701 6 7.85394 5.37142 5.69312 0.47499 -0.324115 7.89531 
22739 7 7.886 4.86164 4.87022 -0.011124 0.0203598 0.00875208 
22670 7 11.9327 -1.89861 7.72342 1.05131 1.66327 -5.27955 
20188 7 15.4435 2.20345 6.22553 0.815885 -0.138062 0.0689708 
20037 5 15.0057 0.565552 9.66218 -0.83742 -6.95188 -13.0122 
20118 7 17.8719 2.63796 7.70159 5.63965 -0.334596 -2.9362 
20117 7 17.6995 1.17882 7.44002 3.00782 2.54012 -4.76182 
17799 9 19.455 -0.241526 7.33338 0.316298 6.5809 17.9038 
20077 6 17.1284 2.01775 7.60787 -23.1851 2.40547 26.7703 
17484 3 19.536 4.02271 8.03155 -4.1844 -2.59212 -2.3799 
20109 5 15.1822 4.68195 9.53593 -5.71966 -7.41966 -17.7365 
17480 3 19.3808 0.510653 7.95906 -16.4515 -31.8943 11.1192 
17478 2 19.7385 0.13463 9.405 32.9039 34.3979 47.9186 
17479 2 19.7269 4.90401 9.32133 46.5831 113.158 62.3258 
17485 5 21.0972 4.45706 9.83859 4.77041 -16.0533 -17.1173 
17483 5 21.125 0.57616 9.92672 5.17994 -10.022 -13.2801 
17482 5 18.7273 0.612358 10.4453 0.834038 -3.80716 -5.90783 
17560 5 18.5746 4.39351 10.2378 -1.23069 1.69947 -11.6747 
20011 1 16.7883 2.43064 10.1919 50.6418 45.6726 52.3812 
20028 1 16.5417 -1.33752 10.1131 23.7717 17.3504 10.0032 
17481 4 19.613 -1.37684 9.30614 -12.4419 -19.5992 -37.4555 
17800 9 20.2785 3.41394 7.96437 0.306469 -2.88427 -5.4666 
20002 6 16.2002 -1.21507 7.53432 -10.42 -7.45096 13.801 
20044 7 15.5857 -0.449442 7.68688 4.34483 8.52193 -3.02088 
20043 7 16.3516 -1.12082 6.60323 0.282745 0.199425 -0.838909 
17377 6 19.8786 -1.6773 6.3322 0.24845 -0.13808 -0.0140225 
17415 7 20.5742 -1.92657 6.98281 2.86479 2.46752 2.1507 
14864 7 23.6314 3.83266 7.75133 5.58387 -4.68756 -1.43448 
14825 6 23.2988 2.969 7.82153 -9.28326 -3.84674 1.29153 
14863 7 24.1611 2.53617 7.90018 3.87514 -1.30833 -0.545835 
17476 1 22.5994 2.5974 10.2549 -65.7484 -41.0281 41.2081 
14928 3 25.5679 4.59148 8.20809 -31.3671 -50.1401 -46.7978 
15246 9 24.7065 0.00657495 8.04332 7.97777 10.7487 19.8442 
14856 3 25.5405 0.383335 8.16649 -12.5877 -14.7211 11.0964 
14929 4 25.6618 2.47021 9.27814 -17.8177 -35.134 -33.7663 
14851 2 25.7726 0.935136 9.6021 20.1489 -189.611 74.9203 
14926 2 25.8313 3.99121 9.61155 28.8904 145.1 89.0866 
14857 5 27.172 0.513951 10.0212 -9.76364 -11.9665 -20.9305 
14931 5 27.2703 4.30837 10.1061 -28.3967 -11.274 -17.9967 
14832 1 28.9014 2.41808 10.4207 14.4425 12.5829 39.5208 
14930 5 24.8007 4.37565 10.6576 12.5837 -4.15111 -12.9727 
14934 5 24.7275 0.511689 10.6576 4.50653 -4.1894 -1.23739 
17384 1 22.8636 -1.16741 10.5973 -1.89592 4.55895 -15.8813 
14848 1 28.7231 -1.43222 10.2624 14.6792 18.3543 0.701097 
14898 6 29.1786 2.45721 7.88738 -13.7174 -15.3636 6.31125 
15247 9 26.3681 4.66526 7.72718 -1.61663 -1.08852 -15.3136 
14826 6 28.1456 -1.3901 7.71182 1.30744 -3.45667 26.7319 
14861 7 27.5228 -0.59177 7.7367 4.99978 5.85065 -2.31647 
14862 7 28.7608 -1.17174 6.9734 0.155421 0.0383537 -0.0637036 
17565 7 23.8543 5.62398 7.62904 12.5181 3.73845 -1.60773 
17491 7 23.3409 -0.830267 7.25909 0.097829 0.0688501 -0.450524 
12347 6 29.4782 5.3719 8.00631 -15.2745 -7.21258 4.15996 
14939 7 29.2544 3.33895 7.63004 0.449971 -0.921 -1.20676 
17492 7 24.1978 -1.77871 8.08715 8.19448 2.4221 -6.38205 
17450 6 23.2929 -1.42611 8.02021 -21.55 -6.84559 19.2719 
25291 7 5.22591 6.53661 7.32751 1.19143 1.64889 -3.24803 
25290 7 3.82687 6.55555 6.86919 -0.682484 1.66492 -4.44283 
25253 6 4.33607 6.71227 7.63615 -9.63773 -11.6009 2.40781 
25517 7 1.84279 7.29014 5.50902 -0.0250581 -0.0576768 -0.55221 
25313 6 1.21101 6.45671 5.78137 5.98574 -5.33558 30.313 
25362 7 1.19888 10.608 6.31952 -0.0176155 -0.0198973 -0.0225311 
25275 1 4.36027 6.50413 10.1833 4.35185 13.1805 8.85109 
25278 8 0.639374 6.49188 7.63496 52.9239 32.0681 8.87852 
22958 9 3.89074 10.3239 7.2783 -3.48758 1.48022 0.224841 
22732 3 4.70032 10.3548 7.96195 2.43536 -12.5638 13.6828 
25359 5 0.701437 8.49354 11.0939 -9.86147 -10.6394 -17.254 
25356 5 3.08021 12.146 10.2169 9.70455 0.136112 -13.1163 
25355 5 0.535314 12.2845 10.6518 -2.92958 -5.13011 -8.36004 
25354 4 1.48185 10.2856 9.54639 -13.7881 13.3516 -27.8058 
25353 3 1.39194 12.6945 8.41831 -11.2332 -7.14581 4.5142 
25351 2 1.63225 11.8296 9.72046 41.2273 48.0301 68.2435 
25286 5 2.93236 8.28049 10.0288 -5.58462 -16.1243 -19.554 
25285 4 0.892127 7.85648 8.74192 -20.4863 -18.6177 -4.60229 
25279 2 1.49492 8.71367 9.83417 15.6522 96.6128 80.3415 
25259 1 4.86194 10.2149 10.3927 8.43106 9.27546 61.0401 
25327 6 1.60703 9.7444 6.34125 2.34342 1.45359 -0.758972 
25363 7 1.38635 9.50649 7.2315 0.464665 2.63568 1.25068 
22807 5 6.5607 12.2849 10.8694 -15.9209 -14.6386 -18.3691 
22730 5 6.65234 8.34528 10.5398 -4.43804 -14.6629 -13.9309 
22726 8 6.48614 10.4372 7.49213 -1.51609 17.826 -26.2698 
22761 6 7.05704 10.8316 5.66761 1.77811 2.5072 6.88326 
22733 4 6.9844 11.7221 8.61372 -10.9917 -12.7153 -2.85495 
15312 7 27.4972 24.4833 17.2997 0.32035 18.6589 7.63254 
22728 4 7.23016 9.05362 8.29312 -12.9214 -20.3189 -5.91963 
22953 7 7.91026 10.1976 5.3838 -0.0667495 0.100279 -0.65345 
22965 7 7.33207 11.8331 5.45166 -0.0492145 0.14174 -0.278553 
22741 7 11.5 7.01103 7.05421 2.60411 -0.0371647 -1.5519 
22700 6 10.8104 6.36788 7.23855 -16.0734 -2.07638 18.4522 
22636 1 10.9188 6.69179 9.82281 3.74937 8.94673 12.1354 
22729 4 7.48133 6.61374 9.11192 -11.1823 -8.39279 -27.6706 
22668 7 10.5831 8.59932 7.42923 1.89724 4.34876 -3.21368 
22725 2 7.70374 8.13304 9.39568 26.9695 31.9364 99.3758 
22727 2 7.53968 12.6129 9.75953 17.1732 133.122 82.1879 
22630 6 10.7174 9.56513 7.55044 -8.17121 0.703501 5.30545 
22667 7 11.6785 9.56 7.58776 1.26879 0.735272 -1.31172 
20110 3 13.3722 8.00482 7.87861 -10.9628 -1.04713 -3.8298 
20176 4 13.3404 12.979 8.33811 -6.59331 -6.95862 -4.07396 
20177 4 13.5478 10.5013 8.95979 -6.22678 -0.288337 -16.2767 
20173 2 13.7057 11.9908 9.40771 33.497 -4.95246 75.9862 
20105 2 13.7244 8.93675 9.12343 -2.62828 6.36354 84.1913 
20178 5 12.5598 12.2564 10.4158 -7.69832 -12.4873 -21.6943 
20183 5 12.8988 8.51128 10.3587 -3.60291 -11.1484 -6.26847 
22734 5 8.97942 12.4092 10.1072 -12.3385 -12.5258 -17.6662 
22723 1 10.5486 10.4168 9.97488 -2.88709 4.07729 9.91403 
22731 5 9.11607 8.33188 9.85191 -15.6669 -24.389 -22.4738 
20354 9 13.8366 7.1662 8.02076 -1.14218 -12.3435 -25.41 
17489 7 15.3685 7.53149 7.27379 -6.20344 -2.28645 -3.76938 
17490 7 16.4114 7.08597 6.51817 -0.225047 0.0331678 -0.311285 
17451 6 15.9423 6.78743 7.29642 -18.7675 -17.1383 17.4902 
17555 4 19.5148 6.40419 9.24816 -10.8663 2.45179 -18.6241 
20102 1 16.4765 6.46221 9.86905 10.8736 0.316343 18.7657 
20179 5 15.0791 12.3713 9.86379 2.63104 3.69386 -11.5771 
20111 5 15.0953 8.51182 9.52882 -26.3167 -13.8654 -14.7876 
17802 9 19.4832 11.878 7.51898 -0.109977 -0.0986247 0.171 
17554 3 19.6317 8.68088 7.9737 -1.86134 -5.31097 6.11747 
17801 9 19.3812 9.57046 8.10065 0.623758 12.1767 6.40427 
17558 3 19.3121 11.5602 8.35726 -4.09376 -2.12827 -0.377938 
17552 2 19.7279 7.97853 9.40881 25.231 57.9843 60.5684 
17553 2 19.7446 12.5897 9.5152 42.7415 43.2537 68.4035 
17559 5 21.2085 12.1329 9.83297 6.83431 -0.59192 -11.0009 
17557 5 21.1128 8.33065 9.93016 1.04408 -11.5589 -15.8902 
17556 5 18.49 8.44005 10.194 12.2081 -4.04349 -6.74022 
17631 5 18.754 12.2185 10.6826 1.80421 -5.4528 -4.84808 
20084 1 16.8199 10.2664 10.3615 -11.0255 -4.27472 -1.56402 
17566 7 22.7737 6.49197 7.09029 0.0947176 0.0180063 0.0522385 
17525 6 23.2369 6.30614 7.97014 -29.9245 -5.85429 17.3203 
15249 9 26.4199 12.3989 7.50271 0.843604 0.692426 0.268299 
14924 1 28.8784 6.30371 10.2599 24.838 20.0778 7.21083 
17459 1 22.8153 6.36449 10.4136 -84.9838 -67.9763 12.2489 
17550 1 22.6813 10.1773 10.109 18.7106 17.7648 8.86192 
15248 9 25.0074 7.30471 8.25379 6.71018 8.86021 8.6257 
15002 3 25.5553 12.1132 7.86039 -4.8335 -8.87927 8.757 
14932 3 25.8534 7.69566 8.37038 -4.6276 -4.18607 1.49039 
15003 4 25.6929 10.0578 9.40228 -9.20247 -5.8393 -23.2373 
15000 2 25.8234 11.5586 9.33827 29.8677 102.482 72.4979 
14927 2 25.9265 8.52626 9.67582 40.5736 67.1036 72.7527 
15005 5 27.2586 12.0307 9.65026 -1.6519 -12.5818 -16.8817 
14933 5 27.3368 8.19806 10.2714 9.50328 -14.1812 -17.3808 
15004 5 24.794 12.1885 10.2281 0.927166 3.43145 -12.7756 
14907 1 29.0423 10.186 10.3202 23.3484 18.7098 21.9894 
15008 5 24.7476 8.17989 10.6591 15.1361 -0.493763 -2.89988 
14899 6 29.4402 9.94521 7.67407 -3.23765 0.0403491 5.30618 
17637 7 24.0129 13.1402 7.48134 1.60961 0.651039 -0.179302 
25427 5 0.471403 16.2254 10.9577 6.30557 -3.77388 -5.43611 
25424 5 3.05777 19.7432 10.2643 -15.137 -6.52487 -10.2893 
25423 5 0.62854 19.9386 10.7649 4.07164 -4.31571 -10.5733 
25422 4 1.53223 17.8586 9.5283 -9.71015 7.18473 -14.3335 
25421 3 1.35286 20.1653 8.46116 -3.22641 -2.54571 -0.0744552 
25419 2 1.68921 19.4163 9.80763 -41.228 139.862 66.5106 
25358 5 3.0433 15.9649 10.3935 6.03486 -1.10955 -11.4664 
25352 2 1.62447 16.359 9.9389 56.6549 2.44254 36.9935 
25333 1 4.76049 17.9652 10.8964 -4.635 13.5549 -6.84307 
25357 3 1.27516 15.4524 8.77037 -12.0754 -18.0158 19.6384 
25460 9 1.6173 15.8283 7.87293 0.0882563 0.364692 4.28652 
25349 1 4.58657 14.1062 10.6957 7.27613 16.4433 -7.14341 
22803 5 6.49129 16.0975 10.8756 1.26213 -0.445658 -0.1677 
22875 5 6.46084 20.071 11.1158 20.1576 7.86946 9.38193 
25459 9 1.48999 13.6574 8.56205 -1.1921 5.18264 -4.36504 
22801 3 7.03055 16.5942 8.55987 -2.17719 -6.92239 4.17099 
2179 7 -0.387305 20.8468 8.22815 14.4259 2.14446 -6.35229 
22805 3 7.32975 19.3599 8.91011 -8.35974 -8.74353 26.3753 
22908 9 7.54595 19.9046 8.12021 0.00868389 0.260598 6.53793 
22774 6 7.84223 14.1301 6.46407 2.06501 1.28168 1.89414 
22907 9 7.21638 17.5067 8.66763 -0.106962 20.2512 1.72529 
22800 2 7.69826 20.1918 10.1825 71.5659 58.5092 36.7457 
22810 7 9.52718 17.6319 7.67339 -2.03442 0.953572 -1.9849 
22775 6 10.3724 17.5576 8.1234 -18.1352 -9.09898 6.31721 
22811 7 11.0269 17.744 7.42304 6.09142 1.05246 -1.22295 
20249 3 13.6146 20.1923 8.5115 -17.4957 -16.0056 19.9415 
22799 2 7.50164 15.6895 9.76752 1.36026 21.0598 70.4633 
20181 4 13.1648 15.598 8.7498 -9.59742 -32.0498 -11.6376 
20250 4 13.59 17.8559 9.69511 -13.7509 6.70228 -27.5588 
20247 2 13.6446 19.4223 9.89672 2.87507 29.1538 68.9379 
20175 2 13.7411 16.3389 9.95052 44.4075 116.621 86.8971 
20255 5 12.7826 16.0392 11.1348 -2.86495 -11.489 -16.4902 
20251 5 12.5994 19.887 10.8751 -0.487596 -0.0808899 8.32733 
22797 1 10.5866 17.8329 10.6706 3.64786 -1.58118 25.4154 
22804 5 8.85928 16.0465 10.2629 -4.50912 -11.1307 -14.3884 
22806 5 9.15709 19.6726 10.6518 26.3653 -12.5779 -11.3645 
20209 6 12.874 15.0323 5.7533 0.479187 -0.353538 1.51662 
20174 8 12.7095 14.4625 7.54514 27.3701 10.9589 -53.7427 
22802 4 7.35344 14.1712 9.46207 -21.0229 9.37738 -28.9254 
22707 1 10.7485 14.2517 10.2767 11.9189 10.6313 -12.9841 
20180 3 10.8086 14.0423 7.95232 18.1875 -8.85947 4.80672 
20260 7 13.0324 18.8856 6.99744 0.132974 1.3341 1.26401 
20261 7 12.9162 17.3666 7.33817 -0.525027 10.6267 5.62758 
20401 7 13.4229 15.9899 5.62814 -0.162124 0.311024 -1.28336 
20406 9 10.0189 14.4108 7.4707 -1.26589 2.85004 -2.32174 
20413 7 11.9327 15.1884 5.26927 -0.0684571 -0.0249369 -0.439515 
20222 6 12.7014 18.0477 6.67459 -0.7498 0.711501 -0.973906 
22813 7 7.7456 15.0607 6.62462 -0.0727511 -0.049585 0.0660483 
22812 7 7.44152 13.8113 7.30537 0.719431 1.44252 6.57172 
17861 7 18.0327 18.1656 5.18632 -0.0415366 -0.0258544 -0.195309 
17849 7 19.1146 19.332 5.5722 -0.0527263 0.151673 -0.564086 
17657 6 18.7692 18.3451 5.88217 -4.85484 -2.65896 15.0712 
20252 5 14.9691 19.7344 10.5394 -8.43927 -13.5227 -17.8937 
20182 5 15.2166 16.0409 10.213 -4.05803 -20.6323 -14.0217 
17622 8 18.5634 18.0799 7.75046 32.3959 27.8587 -13.8947 
17854 9 15.9449 18.6012 8.0719 -0.332703 2.01277 -3.3526 
17628 3 16.7563 18.0742 8.25458 4.11118 -9.93097 9.81445 
17624 4 19.3217 16.6826 8.46567 -7.84975 -11.5531 -3.64122 
17629 4 18.9827 19.4332 8.85904 -13.7605 -12.3262 1.59651 
17621 2 19.6951 15.6526 9.54627 45.9744 95.1876 80.2331 
17623 2 19.5501 20.2671 10.0023 53.2535 25.4152 75.1413 
17630 5 21.0316 19.7719 10.2793 12.5204 -2.47289 -15.207 
17627 5 21.1919 15.89 9.96206 1.23585 -17.7252 -16.2212 
20155 1 16.8424 17.9752 10.6946 1.58515 10.8187 -35.075 
17626 5 18.7672 15.8963 10.7355 -8.44853 -8.73895 -12.4207 
20171 1 16.7158 14.1373 10.3208 5.65898 6.90835 -1.64502 
17625 4 19.606 14.0957 9.12525 -5.97133 7.90967 -11.4514 
17564 7 21.4906 17.2833 7.58657 -0.579549 1.56468 -1.13469 
17703 5 18.6795 20.0258 11.2014 -15.1431 -12.1935 -21.4166 
17709 7 19.905 20.6273 7.34679 2.92296 4.95611 4.43419 
20259 7 15.568 20.8847 8.4035 12.164 3.53148 -2.48033 
17526 6 22.4132 17.452 7.70597 -7.60325 -6.66724 17.7293 
17563 7 22.8092 16.6576 7.3521 0.259454 0.345341 -1.87375 
17619 1 22.5682 17.9268 10.3236 11.0334 12.6155 -64.9131 
15250 9 25.4259 16.554 7.3496 3.23053 4.15095 70.403 
15006 3 25.6058 15.7572 7.92658 -17.3177 -12.1253 55.4764 
15072 4 25.3173 20.4252 8.40544 -12.9541 -7.97375 -2.98446 
15073 4 25.9599 17.9542 9.15621 -15.689 6.05383 -35.0766 
15069 2 25.8295 19.4844 9.52152 46.738 196.398 68.6446 
15075 5 27.2671 19.8707 9.91392 4.87779 -4.32951 -15.1462 
15001 2 25.8934 16.4473 9.39988 31.4465 21.8639 32.8592 
15007 5 27.2951 15.9854 9.7832 -0.538918 -10.4168 -15.8692 
14980 1 29.1857 17.8209 10.1444 -12.5717 -20.3717 15.3643 
15074 5 24.8028 19.6389 10.6176 -5.87078 -5.41176 -19.9168 
15079 5 24.8396 16.1163 10.4638 8.53615 -3.63448 0.488082 
12533 7 25.4571 18.3754 7.23091 -0.406594 4.43231 5.86035 
17532 1 22.9834 14.1035 10.1761 9.92176 12.393 8.65993 
14998 1 28.6373 13.9834 10.0874 19.9466 24.8377 12.8558 
12492 6 25.1645 17.9196 6.43544 -1.26485 -1.70822 -0.927712 
12532 7 24.2391 17.8074 6.45162 -0.0729133 0.00986066 -0.223992 
17636 7 24.2982 14.6547 7.77674 3.1551 -4.7224 -4.56794 
17597 6 27.3956 19.7327 6.47718 -16.354 -1.03711 1.28461 
17635 7 27.0344 19.9354 7.31032 6.32937 1.22095 -2.52879 
17596 6 23.5563 13.9987 7.66239 -11.4024 -1.57231 4.58373 
14974 6 28.7308 14.0837 7.53935 -5.73287 -10.9903 7.02745 
17634 7 26.9707 18.9124 6.11254 0.288257 0.568636 -0.153997 
15084 7 28.6931 18.2675 6.90767 0.59828 2.76403 -1.55596 
15012 7 28.1952 14.867 7.30744 1.77741 1.80721 -1.70217 
15044 6 29.2899 17.8272 7.55162 -18.4609 -15.2417 14.7348 
15011 7 29.5706 14.1102 6.99075 5.05083 0.885689 -0.201652 
25461 9 1.63963 21.1191 8.56579 -0.431348 9.00959 -6.04072 
25417 1 4.459 21.7465 10.9217 -17.2377 -20.0334 -29.361 
24923 5 0.754769 27.5218 10.9484 5.93788 1.6479 -3.27537 
25425 3 1.35108 22.98 8.77836 -10.6012 -8.4313 18.2074 
24927 5 0.559259 23.61 11.1153 15.5838 -1.53278 7.5844 
25426 5 3.10363 23.8017 10.4009 3.47363 -9.47307 -9.90693 
25420 2 1.64879 23.9265 10.0018 35.9378 97.9396 61.2485 
25401 1 4.97038 25.5329 10.7242 11.6012 4.71813 3.57363 
24924 5 3.18735 27.1766 10.4054 -6.28411 -6.19163 -14.3355 
24922 4 1.38256 25.4386 9.75254 -16.3976 10.4773 -17.2069 
24919 2 1.7823 26.9563 9.95451 0.696673 144.67 61.874 
24921 3 1.55556 27.7248 8.56562 -3.23887 -0.932923 8.29484 
25462 9 1.60156 23.3783 7.96981 -0.0554411 0.118571 1.80972 
22871 5 6.64021 23.6959 10.9095 4.90492 -4.70575 -5.1125 
25451 9 2.36751 27.8615 8.13061 0.0526876 0.481687 1.55102 
22375 5 6.78156 27.3777 11.2762 1.95702 -4.00811 -3.60385 
20355 9 13.7553 21.1037 8.67011 -2.6013 21.2927 -0.930574 
22873 3 7.36095 26.8242 8.94079 -1.75577 -2.88046 22.8768 
22910 9 7.83453 27.1872 8.16884 0.0157751 0.303114 5.19655 
22881 7 10.5673 22.2037 7.78641 0.176264 0.147302 -0.590157 
22880 7 12.0072 21.7432 8.22322 12.097 4.40418 -4.51549 
22869 3 7.56442 24.0265 8.5961 -0.8677 -1.30574 0.745483 
22842 6 11.0399 21.8185 8.50693 -11.64 -8.4331 2.66264 
22909 9 7.42422 24.9915 8.72358 -0.284627 9.52049 -0.657548 
22870 4 7.80675 21.6814 9.76784 -9.8402 13.038 -14.0545 
22781 1 10.8959 21.6885 11.0129 -28.4071 -19.2503 0.992975 
22868 2 7.76545 27.7412 10.1816 38.2196 97.3362 38.9772 
22867 2 7.78902 23.2324 9.92461 54.3872 189.506 70.6274 
22381 7 12.0152 26.341 8.4485 11.1004 9.23352 -1.24149 
20253 3 13.4682 23.4016 8.82795 -29.453 -27.6106 7.20592 
22380 7 10.8121 26.2531 7.54966 0.0741883 0.10646 0.0967815 
22342 6 11.2091 25.8188 8.3988 -19.441 -2.86568 29.5983 
20317 3 13.3219 27.8427 9.08682 -10.335 -13.0258 -8.47602 
20248 2 13.7696 24.0294 10.2263 8.41596 4.54199 109.498 
20318 4 13.624 25.5447 10.0164 -29.2528 -19.2052 -43.1885 
20315 2 13.7788 27.0543 10.3348 51.3799 -14.934 80.2257 
22865 1 10.6865 25.3992 10.9226 11.8644 11.1556 11.3647 
22872 5 9.17462 23.6871 10.462 5.17816 -15.5515 -14.088 
22874 5 9.24947 27.6706 10.5948 6.65376 -9.61522 -9.97723 
20356 9 12.5954 23.6209 8.49206 10.306 3.85813 -9.88473 
25431 7 14.1509 26.52 7.83751 1.07699 4.73354 6.7791 
20323 5 12.8525 23.6161 11.429 2.33717 -7.82763 1.25026 
25430 7 14.093 24.9955 7.86813 1.68826 4.71487 10.4072 
25395 6 14.4016 25.7329 7.27378 -0.138837 0.0918338 -0.162393 
20258 7 15.2294 22.3163 8.12146 1.34489 0.122044 -1.46016 
20223 6 16.0015 21.7513 8.2238 -7.27352 -1.23512 9.24232 
20245 1 16.5342 21.695 10.8038 16.5985 20.6472 40.7962 
17698 4 19.4354 21.7483 9.56107 -11.8809 -3.93937 -28.2788 
20320 5 15.2214 27.4242 10.856 4.48719 -11.1849 -14.5549 
20254 5 15.1801 23.5949 10.561 -16.0124 -11.6117 -20.1132 
20329 7 17.2434 26.6466 8.28058 4.00072 3.20111 -3.64125 
20328 7 16.0419 25.8023 7.61998 1.70156 -0.0175219 -0.0704023 
17803 9 18.6355 24.4714 8.19816 9.14034 9.20022 -0.664895 
20290 6 16.6573 25.8385 8.42977 -27.0562 -4.72877 8.32441 
17697 3 19.4666 23.9299 8.24968 -7.31176 -15.2915 7.94145 
17701 3 18.7572 27.5768 9.07536 -11.4278 -29.586 -3.31003 
17695 2 19.6311 23.298 9.64847 1.03075 5.01585 75.7325 
17696 2 19.6976 27.9701 10.2409 33.3863 100.586 92.2744 
17700 5 20.9899 23.6351 10.1729 -17.2866 -7.49609 -18.911 
17702 5 21.0953 27.3466 10.1236 7.89173 -13.504 -21.1177 
17699 5 18.7076 23.7838 10.7613 -2.91528 -4.27478 -1.06177 
20229 1 17.0048 25.6018 10.9426 18.4665 14.9452 -17.7562 
17708 7 20.0702 22.1005 7.0657 -0.238948 1.39026 0.840705 
17670 6 20.1319 21.2549 6.64674 -0.750645 0.868731 -1.33833 
17707 7 20.7868 25.2363 7.6314 4.67184 4.90667 -0.065237 
17706 7 21.1787 26.5559 8.43819 0.130642 6.50004 6.73605 
17671 6 21.5933 25.7538 7.94146 -0.340266 -4.72285 5.72703 
17804 9 18.1596 28.2261 8.79174 4.30927 -0.344048 -3.04264 
15302 9 22.12 22.0167 7.2663 -10.7675 2.28085 -0.662076 
15082 7 28.9341 21.4367 6.98265 -0.121302 1.91637 -3.12303 
15309 7 26.1711 21.1856 5.56242 -0.0514096 0.353613 -0.58183 
15297 7 25.7773 22.9358 5.36905 0.0247202 0.421948 0.0402621 
15076 3 22.8653 21.7306 7.945 5.13313 -10.3107 6.80798 
15105 6 25.4296 21.9972 5.7434 2.51939 2.80526 8.7615 
15067 1 28.5009 21.8246 10.3102 6.88438 13.4344 35.6541 
17603 1 22.8719 21.8054 10.3091 41.8929 31.1936 64.1213 
15070 8 24.6898 21.8654 7.53391 8.58358 21.9879 -6.07717 
15157 7 24.761 24.7113 6.5409 0.0828446 1.42764 -2.27873 
17693 1 22.4585 25.6458 10.3024 36.1773 47.3291 6.98078 
15118 6 24.3516 25.0692 5.80024 0.217245 -0.0167271 -0.0782041 
15156 7 23.4675 25.4068 6.08223 0.347311 0.0658698 -0.0156773 
12750 9 28.7793 27.0604 8.02173 -18.1586 -1.30348 -3.50048 
15145 3 25.8709 28.1424 8.32624 -24.9213 -10.1786 24.2973 
15077 4 25.2347 23.1977 8.50469 -14.8382 -21.7505 -11.7482 
15146 4 25.5466 25.6818 9.29943 -7.71917 17.855 -15.4518 
15143 2 25.8227 27.2278 9.63665 33.5575 58.0421 41.7656 
15071 2 25.6377 24.1622 9.58877 42.2622 136.401 70.7101 
15078 5 27.0823 23.775 9.8664 3.4744 -1.41072 -12.6635 
15148 5 27.2019 27.5255 10.2775 11.493 -13.2962 -15.8615 
15051 1 28.9278 25.6837 10.4438 0.333892 13.4467 41.4483 
15147 5 24.7278 27.7419 10.5663 3.66927 -2.08932 -8.56812 
12524 3 29.1596 26.0649 8.01414 -11.2365 -1.27773 8.99923 
15045 6 29.2043 21.7754 7.82857 -18.5816 -11.1062 5.05861 
15251 9 25.5134 27.6474 7.63837 -0.0848733 -0.293478 15.5422 
15151 5 24.6677 23.8201 10.7274 -4.87481 -8.0967 -16.3812 
25272 7 0.475655 4.33923 16.0626 4.01236 -2.06506 9.4438 
25198 5 4.5419 2.55475 12.6561 -17.0901 -10.1126 -9.11146 
25195 5 4.3158 -1.09258 12.7632 -1.84735 -3.49031 3.24119 
25511 9 -0.0692989 0.386455 16.0058 -14.2218 3.81994 -3.51647 
22635 1 6.05896 0.692999 12.8525 -22.229 -5.28351 -4.96473 
25268 5 2.06322 2.89899 12.9931 -0.00849833 -11.2776 -21.7065 
25258 1 0.250924 4.4912 12.7638 8.7083 2.72682 -2.12207 
25207 1 0.476342 0.786529 13.0733 15.7809 41.7363 22.4335 
25191 2 3.47612 3.03985 13.5769 19.093 111.096 58.383 
25263 4 3.57926 4.53329 13.9916 -29.0221 5.5766 -33.9639 
25197 4 3.26023 2.0922 14.7531 -6.52832 -21.3641 -1.81824 
25192 4 3.04502 -0.482259 14.848 -10.708 -12.5085 -4.1899 
25196 3 0.649485 0.732536 15.3859 11.4176 -18.6573 7.41931 
25190 8 2.48765 0.872787 15.8189 6.69031 28.5121 -7.07171 
25240 6 2.85721 0.958212 17.7406 21.9515 -39.3791 36.386 
25519 7 2.80188 0.105666 18.2377 -4.75378 -6.28949 -28.8095 
25507 7 3.80442 1.3592 18.0407 7.91315 1.27083 -1.89548 
25308 6 0.002513 4.45543 15.1504 -33.3775 -7.32764 -7.59296 
25270 6 1.37852 4.38932 17.4613 -8.02944 26.1254 -29.482 
22655 1 6.37544 4.67075 12.8239 -9.2375 4.61766 -8.36 
25194 5 1.89442 -1.62182 13.1754 0.181319 -13.089 -18.9637 
25189 2 3.31878 -1.5892 13.8009 46.4542 62.9829 95.0547 
25309 7 2.26886 4.76868 17.4679 4.99772 -2.6493 1.40831 
22683 6 6.27684 -0.139712 15.3539 -21.5611 -5.42506 7.15334 
22644 3 6.95034 4.3564 15.1295 3.05671 -16.8157 4.32322 
22650 7 6.32431 -1.0592 15.6161 4.64091 -1.14129 -5.65845 
22959 9 6.09093 4.35434 15.7541 12.2704 3.78398 0.358647 
22649 6 4.36872 4.02845 16.6871 -22.3672 31.1771 -24.5719 
22684 7 4.01668 3.16767 16.3228 5.16399 16.0101 5.93766 
22687 7 6.14041 0.248845 18.9382 2.14344 4.20564 0.745574 
20062 7 5.79659 2.17808 17.5886 4.83905 4.61631 -0.147942 
25310 7 1.61404 3.44929 17.6942 1.94636 5.91572 1.49069 
22651 7 6.36871 0.325618 16.1933 3.469 1.03285 0.0915901 
22685 7 4.05823 4.74396 16.0495 0.877477 13.7611 10.9449 
20023 6 6.57641 1.59919 17.6347 -1.12738 -17.6282 -19.2928 
25236 7 0.756245 0.934375 18.4401 15.47 4.08226 -0.990189 
22760 7 5.03119 4.89883 18.26 6.68823 2.52729 15.9897 
22759 7 6.46841 5.13736 18.8057 4.11289 2.68874 -5.10529 
17474 7 17.6506 -1.72409 15.5948 3.82006 2.24379 -4.6881 
20061 7 7.00494 1.87654 18.4224 1.99297 0.916655 -2.07891 
20063 7 14.5479 0.500145 18.0241 -2.29618 4.78273 0.430644 
20022 6 13.9418 1.13236 17.626 -25.2944 -8.97562 -8.05962 
20101 7 8.40535 0.69944 17.1295 3.92372 -3.63095 -1.81249 
22931 9 9.85861 -0.638763 15.7042 -3.20024 -0.790054 -18.3156 
22643 5 10.3472 2.57234 12.1955 -3.0773 -4.56471 -10.0544 
20083 1 12.0539 4.57824 12.2941 25.517 15.3148 25.394 
22642 5 7.78438 2.32799 12.6693 -1.11367 -8.85335 -19.7082 
22572 5 10.3915 -1.19034 12.4814 -0.559073 -7.18043 -7.87498 
22647 5 8.01803 -1.15376 13.3887 9.71393 -14.6177 -19.5143 
20029 1 12.4935 0.818447 12.5759 2.5246 13.0225 -6.268 
20095 5 13.8672 2.81253 13.0198 -12.6041 -11.0006 -15.1292 
22637 2 9.23854 2.21284 13.1776 45.2893 43.1694 73.6441 
22565 2 9.47766 -0.798971 13.6553 36.8934 51.5918 49.0182 
22641 4 9.6135 0.790931 13.697 -22.2352 -3.5653 -28.3047 
22640 4 9.10375 3.21619 14.2882 -12.7864 -14.601 -7.86145 
20060 6 12.2806 1.26309 15.1753 -13.9933 -7.17225 8.33125 
20025 7 11.4389 0.81499 15.2592 5.49148 1.49302 -5.47803 
22638 8 8.72363 4.48408 15.4729 18.5944 56.0748 54.1982 
20024 7 12.7372 1.24415 16.0192 2.49714 2.37248 0.512719 
22688 6 9.38336 3.95511 17.1867 -0.502531 10.6239 26.8726 
20130 6 9.26273 0.259039 17.123 5.98362 -14.6089 -5.48853 
20016 5 13.8732 -1.10957 13.0216 5.46174 -14.1762 -18.2416 
20100 7 9.07354 -0.313951 17.8969 -3.46953 5.62628 22.7188 
22571 3 10.0791 -1.25192 15.0102 -17.5109 -27.0876 -2.59489 
20135 7 12.3929 0.998122 18.4686 1.89679 2.30907 -6.77382 
22955 7 9.09463 2.92237 17.5059 0.822714 21.0244 11.7529 
20134 7 10.8304 0.816157 18.1601 12.5571 3.38148 5.98769 
22967 7 9.10301 4.49714 18.0918 1.59118 15.2024 35.3146 
20098 7 11.9373 2.91348 19.3275 -1.92413 9.44672 -0.960095 
20379 9 14.3635 2.08322 15.3946 -9.72713 3.00591 -30.8274 
15265 9 27.5003 28.4115 18.6578 -3.65949 13.1832 -19.4556 
20064 7 14.4604 1.53501 16.9271 -3.2684 2.12954 -0.637211 
20366 9 14.4298 2.27262 19.2845 -3.57701 -1.14396 -138.059 
15278 9 28.0162 28.4652 16.2003 -4.01999 -3.60334 -102.893 
20096 6 11.5184 1.13686 18.8637 -29.9539 -30.1152 6.31281 
17690 7 18.9679 28.3061 19.0376 10.4441 3.5927 -2.51915 
20367 9 15.1654 4.92033 18.8936 2.76076 3.68432 16.8181 
20378 9 15.4007 0.0444891 14.8487 -2.15789 70.0305 29.8962 
20012 2 15.2359 -1.61828 13.5115 10.9408 57.9832 81.0173 
17469 5 19.9364 -1.30131 13.4326 -8.01508 -12.4244 -12.3059 
20017 5 16.2815 -1.21496 12.5395 12.3393 -1.28667 0.665996 
20020 5 16.2894 2.4578 12.6312 -7.66337 -4.80461 -10.7252 
17477 1 18.4308 4.50707 12.7514 47.0219 37.1656 58.9485 
17458 1 18.218 0.637135 12.871 48.5199 37.4023 12.4797 
17464 5 19.9587 2.61017 13.0923 0.463316 -12.0608 -13.1862 
20014 3 15.3481 -0.927596 14.9324 -16.5861 -6.22923 25.792 
20013 2 15.2355 2.86552 13.6686 23.4764 -14.3259 64.0556 
20089 4 15.4847 4.41259 13.8828 -13.0228 -1.61868 -19.7061 
17460 2 21.2934 2.30374 13.8302 56.3588 56.5641 57.3894 
17386 2 21.2555 -0.760946 14.0881 56.5609 165.366 32.2699 
20019 3 15.235 2.09887 15.0985 -30.3583 -11.5537 18.3905 
17466 6 17.6129 0.608686 15.3741 -24.1625 -4.02787 11.1177 
17494 7 16.9483 -0.142867 15.5439 20.6489 5.74635 -5.0665 
17493 7 17.1071 1.3587 15.6479 4.9866 -6.85428 -5.35528 
17471 6 19.3342 2.85102 17.2924 -18.4323 -23.6906 -13.2042 
17510 7 19.0316 2.04039 17.5921 -1.31897 -7.94585 0.501325 
17509 7 19.9969 3.05287 18.0099 5.70428 1.43311 17.1285 
17463 4 21.2166 0.803669 14.1626 -11.7354 4.53519 -24.0961 
17508 6 18.3186 4.72008 15.3473 -19.0117 -3.2778 8.40783 
14959 7 21.3989 -0.397898 18.4469 -0.602763 4.99286 1.98566 
14960 7 21.4746 1.02759 17.9051 -1.33263 8.66812 4.0322 
17391 3 21.6603 -1.45869 15.3741 -20.8112 -42.1926 -20.8138 
17825 9 21.4917 -0.903603 16.1434 -1.47615 1.45653 -20.5586 
17462 3 21.3772 3.16166 15.1065 -13.6919 -18.9279 14.961 
14918 6 21.6996 0.0953764 17.7023 -9.51963 -3.81457 -21.6456 
17826 9 20.5678 2.98567 15.6862 12.0797 1.42716 35.1115 
17583 7 18.2389 3.91462 18.1308 14.6984 5.97415 8.04507 
17544 6 17.5366 4.09418 18.8599 -14.216 -14.0486 33.198 
17582 7 16.819 3.43904 18.7003 5.04802 4.34855 -4.00783 
17827 9 21.3166 4.96497 15.0665 -2.75581 -21.9559 -20.8608 
17472 7 18.9077 4.27724 15.944 2.42467 2.39638 -4.52424 
17456 7 16.7362 -0.31978 18.9991 15.4834 5.75406 -0.643077 
17457 7 16.5188 1.22096 19.0696 13.0609 2.42582 -3.48272 
20311 7 13.2116 28.2964 16.0064 -2.50673 3.63815 -8.80625 
25476 9 3.40473 28.5783 16.3103 -4.29243 -11.6317 -47.868 
15310 7 25.3079 0.622451 16.6554 -3.83234 3.779 -31.6816 
17392 5 22.3788 -1.113 13.0479 13.1621 -1.22962 2.25801 
14833 2 27.436 -1.7351 13.7653 6.97143 -46.6881 84.8741 
14837 5 26.0685 -1.25524 13.3193 -13.7203 -14.6085 -17.1489 
14835 3 27.7272 -1.17929 15.1912 -9.61711 -29.0978 -6.98772 