ITEM: TIMESTEP
40000
ITEM: NUMBER OF ATOMS
25520
ITEM: BOX BOUNDS pp pp ff
-3.8959205201285124e-01 6.0088135642019459e+01
-1.9452389155355383e+00 5.9115524189537531e+01
-1.2206056431032383e+01 1.1390111600702880e+02
ITEM: ATOMS id type x y z v_stressx v_stressy v_stressz 
25292 7 5.89857 3.03966 7.5916 -2.48941 -8.5325 -6.31727 
25293 7 5.98077 1.53035 7.7064 -1.92051 -5.94399 -2.00293 
25252 6 5.35811 2.25094 7.51796 -6.33496 -3.21714 0.307808 
25287 5 0.61597 0.755495 10.7564 8.04858 -1.52153 5.26109 
25283 5 2.94291 4.2301 9.842 11.4697 6.92709 -12.9111 
25281 4 1.3887 2.44216 9.07367 -13.7603 2.20806 -17.4893 
25280 4 1.07853 5.00258 8.46007 -12.5482 -8.35083 -6.37127 
25277 2 1.45655 3.94107 9.49571 50.209 39.6814 78.9324 
25215 5 2.99957 0.588718 9.72621 -14.4154 -9.97572 -12.0384 
25209 2 1.59287 0.935181 9.44522 5.08263 -55.9634 74.1704 
25188 1 4.8243 2.58953 9.97468 5.45167 1.05004 15.4749 
25214 3 0.796635 0.0137284 8.44439 -1.89788 -4.1643 2.14008 
25282 5 0.520916 4.37471 10.6565 -14.9487 -14.2123 -18.4442 
25458 9 1.40812 -0.435335 7.83607 0.0112502 2.07383 1.69716 
25206 1 4.52732 -1.17961 10.115 34.8742 37.7904 21.0559 
22660 5 6.52822 0.875659 10.2203 -1.19646 -5.72646 -16.1725 
22735 5 6.623 4.87348 10.5536 2.32811 -9.00325 -14.1623 
25505 7 1.83983 5.65447 5.50835 -0.0553239 -0.158621 -0.295299 
22662 3 7.17647 4.29529 8.22411 -11.8542 -23.0982 -18.6172 
22658 3 7.30314 0.346889 7.89736 -14.7823 -15.0012 -11.2367 
22905 9 7.65252 -0.485879 7.46068 0.0172844 -0.420961 -4.48936 
22906 9 7.50322 4.57024 7.35908 -2.81419 4.28528 9.68333 
20115 7 11.1372 2.292 6.49758 0.440306 -0.012169 -1.16746 
22656 2 7.7059 0.365729 9.40584 20.7661 73.3991 61.9578 
20116 7 12.1136 2.88755 7.40659 19.5769 6.63473 2.66127 
20078 6 11.1398 2.86581 7.23657 -15.8007 -11.5126 1.85214 
20106 3 13.741 4.72985 7.46261 -15.568 -10.8836 42.0799 
22657 2 7.60419 5.1024 9.41016 52.7485 -16.4553 20.9296 
20036 3 13.619 0.47741 7.57109 -16.2536 -19.2876 16.6537 
20107 4 13.6664 2.6833 8.8298 -17.7301 -13.9975 -34.351 
20104 2 13.8784 4.18168 8.97251 31.1038 36.0358 95.0385 
20031 2 13.7132 1.1448 8.96008 61.4352 163.517 14.8067 
20108 5 12.6966 4.70757 9.81807 14.8849 12.1145 1.61919 
20112 5 12.4932 0.846951 9.91178 10.9605 -0.345227 5.01048 
22654 1 10.4859 2.78478 9.68506 11.3316 10.1281 11.8524 
22661 5 9.03983 1.11007 9.56315 -7.33977 -6.4514 -16.4993 
22663 5 9.10858 4.7108 9.73761 4.43681 -12.7519 -15.4878 
22563 1 10.886 -1.13469 10.1589 -1.52049 -0.681339 -32.0225 
22659 4 7.7627 -1.12896 9.68153 -8.93391 -34.4996 -34.7814 
22629 6 11.3751 -1.065 7.76545 -16.7166 5.17905 2.73677 
22669 7 11.9249 -0.207968 7.44815 1.2837 5.18148 -1.33225 
20352 9 13.8605 1.22514 6.87465 0.66942 12.4911 14.6403 
20189 7 14.2777 3.18994 6.51456 0.233595 13.4871 8.34035 
20353 9 14.543 5.23857 7.22704 7.71394 13.1686 16.8604 
20148 6 14.5671 2.45013 5.87332 0.14595 0.0585664 0.101936 
22740 7 11.2703 5.5881 6.8279 3.26799 1.46452 -1.15954 
22738 7 8.76742 5.41578 5.90114 -0.706126 0.682185 -1.36644 
22701 6 7.85394 5.37142 5.69312 0.548333 -0.258668 7.96045 
22739 7 7.886 4.86164 4.87022 -0.0114261 0.0201597 0.00826552 
22670 7 11.9327 -1.89861 7.72342 1.02505 1.61211 -5.33187 
20188 7 15.4435 2.20345 6.22553 0.806821 -0.141568 0.0643159 
20037 5 15.0057 0.565552 9.66218 -0.727587 -6.89011 -13.1381 
20118 7 17.8719 2.63796 7.70159 5.63376 -0.333284 -2.84811 
20117 7 17.6995 1.17882 7.44002 2.98448 2.52565 -4.6892 
17799 9 19.455 -0.241526 7.33338 0.281999 6.55332 17.8005 
20077 6 17.1284 2.01775 7.60787 -23.0505 2.41125 26.3782 
17484 3 19.536 4.02271 8.03155 -4.14592 -2.5139 -2.29974 
20109 5 15.1822 4.68195 9.53593 -5.66174 -7.23408 -17.1849 
17480 3 19.3808 0.510653 7.95906 -16.3589 -31.8978 10.8379 
17478 2 19.7385 0.13463 9.405 32.7232 34.4783 49.7181 
17479 2 19.7269 4.90401 9.32133 45.6639 112.613 59.3471 
17485 5 21.0972 4.45706 9.83859 4.88927 -15.9573 -16.8188 
17483 5 21.125 0.57616 9.92672 5.24487 -9.88599 -13.4247 
17482 5 18.7273 0.612358 10.4453 0.885507 -3.57943 -6.7653 
17560 5 18.5746 4.39351 10.2378 -0.773504 1.86181 -10.6958 
20011 1 16.7883 2.43064 10.1919 50.4563 45.497 49.584 
20028 1 16.5417 -1.33752 10.1131 23.5901 17.1687 9.12527 
17481 4 19.613 -1.37684 9.30614 -12.436 -19.6509 -38.1641 
17800 9 20.2785 3.41394 7.96437 0.289856 -2.90665 -5.48569 
20002 6 16.2002 -1.21507 7.53432 -10.2875 -7.3527 13.8354 
20044 7 15.5857 -0.449442 7.68688 4.25676 8.46902 -2.9115 
20043 7 16.3516 -1.12082 6.60323 0.27893 0.195398 -0.855828 
17377 6 19.8786 -1.6773 6.3322 0.249741 -0.136938 -0.00640729 
17415 7 20.5742 -1.92657 6.98281 2.8265 2.45323 1.95426 
14864 7 23.6314 3.83266 7.75133 5.56469 -4.71559 -1.55406 
14825 6 23.2988 2.969 7.82153 -9.2431 -3.76053 1.5494 
14863 7 24.1611 2.53617 7.90018 3.84158 -1.35956 -0.692132 
17476 1 22.5994 2.5974 10.2549 -65.7873 -41.0781 48.1919 
14928 3 25.5679 4.59148 8.20809 -30.8775 -49.9588 -46.4735 
15246 9 24.7065 0.00657495 8.04332 7.85552 10.7207 19.7952 
14856 3 25.5405 0.383335 8.16649 -12.3799 -14.6528 11.1936 
14929 4 25.6618 2.47021 9.27814 -17.4151 -35.1027 -33.2405 
14851 2 25.7726 0.935136 9.6021 19.1944 -190.405 73.3197 
14926 2 25.8313 3.99121 9.61155 27.0475 144.668 88.2141 
14857 5 27.172 0.513951 10.0212 -9.66831 -11.8197 -20.9253 
14931 5 27.2703 4.30837 10.1061 -28.0982 -11.2109 -18.1047 
14832 1 28.9014 2.41808 10.4207 14.3542 12.0485 40.8913 
14930 5 24.8007 4.37565 10.6576 12.7427 -4.32019 -13.4506 
14934 5 24.7275 0.511689 10.6576 4.35468 -3.82303 -1.21334 
17384 1 22.8636 -1.16741 10.5973 -0.58412 3.93408 7.38182 
14848 1 28.7231 -1.43222 10.2624 14.7149 18.6332 0.750635 
14898 6 29.1786 2.45721 7.88738 -13.6809 -15.2447 6.23473 
15247 9 26.3681 4.66526 7.72718 -1.6201 -1.09198 -15.3163 
14826 6 28.1456 -1.3901 7.71182 1.38581 -3.21011 26.6012 
14861 7 27.5228 -0.59177 7.7367 4.9892 5.82874 -2.2826 
14862 7 28.7608 -1.17174 6.9734 0.154929 0.0365158 -0.0663044 
17565 7 23.8543 5.62398 7.62904 12.4944 3.70462 -1.72746 
17491 7 23.3409 -0.830267 7.25909 0.0926377 0.0691804 -0.457092 
12347 6 29.4782 5.3719 8.00631 -15.1902 -7.07502 4.61468 
14939 7 29.2544 3.33895 7.63004 0.443822 -0.93045 -1.2324 
17492 7 24.1978 -1.77871 8.08715 8.10699 2.37557 -6.36341 
17450 6 23.2929 -1.42611 8.02021 -21.3354 -6.74821 19.2098 
25291 7 5.22591 6.53661 7.32751 1.16079 1.62533 -3.18198 
25290 7 3.82687 6.55555 6.86919 -0.702657 1.66262 -4.42857 
25253 6 4.33607 6.71227 7.63615 -9.56799 -11.4863 2.20332 
25517 7 1.84279 7.29014 5.50902 -0.0274962 -0.0546538 -0.551048 
25313 6 1.21101 6.45671 5.78137 6.10951 -5.51869 30.1819 
25362 7 1.19888 10.608 6.31952 -0.0183128 -0.0168918 -0.0196202 
25275 1 4.36027 6.50413 10.1833 3.09456 12.4511 4.77223 
25278 8 0.639374 6.49188 7.63496 52.5259 32.3684 8.90586 
22958 9 3.89074 10.3239 7.2783 -3.49679 1.4656 0.252183 
22732 3 4.70032 10.3548 7.96195 2.45054 -12.5752 13.3412 
25359 5 0.701437 8.49354 11.0939 -9.9577 -10.3926 -17.7192 
25356 5 3.08021 12.146 10.2169 9.97404 0.116131 -12.7991 
25355 5 0.535314 12.2845 10.6518 -2.51057 -5.0082 -7.77528 
25354 4 1.48185 10.2856 9.54639 -13.5984 14.2221 -26.4775 
25353 3 1.39194 12.6945 8.41831 -11.3674 -7.41693 4.08151 
25351 2 1.63225 11.8296 9.72046 40.8084 48.2709 67.2946 
25286 5 2.93236 8.28049 10.0288 -5.55588 -16.0417 -18.8548 
25285 4 0.892127 7.85648 8.74192 -20.4365 -18.5548 -3.53832 
25279 2 1.49492 8.71367 9.83417 15.4737 97.4229 75.5046 
25259 1 4.86194 10.2149 10.3927 7.99424 8.96344 56.8442 
25327 6 1.60703 9.7444 6.34125 2.38789 1.43676 -0.816661 
25363 7 1.38635 9.50649 7.2315 0.425254 2.65629 1.40175 
22807 5 6.5607 12.2849 10.8694 -15.6794 -14.4174 -17.2204 
22730 5 6.65234 8.34528 10.5398 -4.30552 -14.6898 -12.5465 
22726 8 6.48614 10.4372 7.49213 -1.85815 17.7367 -25.4825 
22761 6 7.05704 10.8316 5.66761 1.78671 2.55447 6.88316 
22733 4 6.9844 11.7221 8.61372 -10.791 -12.705 -2.73505 
22728 4 7.23016 9.05362 8.29312 -12.769 -20.1806 -5.97441 
22953 7 7.91026 10.1976 5.3838 -0.0669207 0.0987477 -0.654091 
22965 7 7.33207 11.8331 5.45166 -0.0491601 0.140667 -0.278564 
22741 7 11.5 7.01103 7.05421 2.59288 -0.0482462 -1.53509 
22700 6 10.8104 6.36788 7.23855 -15.9525 -1.94816 18.2826 
22636 1 10.9188 6.69179 9.82281 3.87214 8.87574 11.8786 
22729 4 7.48133 6.61374 9.11192 -10.9933 -8.36566 -27.4685 
22668 7 10.5831 8.59932 7.42923 1.86409 4.30951 -3.15737 
22725 2 7.70374 8.13304 9.39568 26.2878 31.2053 95.826 
22727 2 7.53968 12.6129 9.75953 16.0881 132.687 77.3222 
22630 6 10.7174 9.56513 7.55044 -8.08541 0.807709 5.23608 
22667 7 11.6785 9.56 7.58776 1.25193 0.714182 -1.31257 
20110 3 13.3722 8.00482 7.87861 -10.845 -0.915149 -3.81374 
20176 4 13.3404 12.979 8.33811 -6.57361 -6.93743 -4.08387 
20177 4 13.5478 10.5013 8.95979 -6.18841 -0.259822 -16.4425 
20173 2 13.7057 11.9908 9.40771 33.8542 -5.10712 78.5161 
20105 2 13.7244 8.93675 9.12343 -2.67381 5.98876 84.4253 
20178 5 12.5598 12.2564 10.4158 -7.93004 -12.4806 -23.0919 
20183 5 12.8988 8.51128 10.3587 -3.46417 -10.9326 -6.65974 
22734 5 8.97942 12.4092 10.1072 -12.1481 -12.3534 -16.9949 
22723 1 10.5486 10.4168 9.97488 -3.07978 3.97703 9.55098 
22731 5 9.11607 8.33188 9.85191 -15.5418 -24.292 -21.7799 
20354 9 13.8366 7.1662 8.02076 -1.21624 -12.438 -25.475 
17489 7 15.3685 7.53149 7.27379 -6.23627 -2.30765 -3.80584 
17490 7 16.4114 7.08597 6.51817 -0.225864 0.032467 -0.310599 
17451 6 15.9423 6.78743 7.29642 -18.5808 -16.9521 17.5939 
17555 4 19.5148 6.40419 9.24816 -10.5866 2.53796 -18.3846 
20102 1 16.4765 6.46221 9.86905 10.867 0.267889 18.587 
20179 5 15.0791 12.3713 9.86379 2.77583 3.73156 -12.1246 
20111 5 15.0953 8.51182 9.52882 -26.2855 -13.6206 -15.05 
17802 9 19.4832 11.878 7.51898 -0.113016 -0.100123 0.155931 
17554 3 19.6317 8.68088 7.9737 -1.80612 -5.30131 6.15129 
17801 9 19.3812 9.57046 8.10065 0.572969 12.161 6.37945 
17558 3 19.3121 11.5602 8.35726 -3.88814 -2.05404 -0.587446 
17552 2 19.7279 7.97853 9.40881 23.9092 56.5192 61.7593 
17553 2 19.7446 12.5897 9.5152 41.6139 42.6793 71.2136 
17559 5 21.2085 12.1329 9.83297 6.8895 -0.444101 -11.57 
17557 5 21.1128 8.33065 9.93016 1.01996 -11.2798 -16.5746 
17556 5 18.49 8.44005 10.194 12.5016 -3.88704 -8.85115 
17631 5 18.754 12.2185 10.6826 2.13359 -5.52186 -4.99826 
20084 1 16.8199 10.2664 10.3615 -10.8227 -4.03688 -0.204456 
17566 7 22.7737 6.49197 7.09029 0.0940267 0.0174704 0.0476171 
17525 6 23.2369 6.30614 7.97014 -29.871 -5.72506 17.7047 
15249 9 26.4199 12.3989 7.50271 0.834464 0.681473 0.250695 
14924 1 28.8784 6.30371 10.2599 25.1563 20.4844 3.8637 
17459 1 22.8153 6.36449 10.4136 -82.8559 -68.3189 43.6399 
17550 1 22.6813 10.1773 10.109 18.7955 17.6738 9.38479 
15248 9 25.0074 7.30471 8.25379 6.69299 8.83065 8.70328 
15002 3 25.5553 12.1132 7.86039 -4.6923 -8.68252 8.96781 
14932 3 25.8534 7.69566 8.37038 -4.58455 -4.15764 1.34555 
15003 4 25.6929 10.0578 9.40228 -8.98984 -5.89369 -23.7357 
15000 2 25.8234 11.5586 9.33827 28.5401 101.722 72.7287 
14927 2 25.9265 8.52626 9.67582 39.3223 65.7747 75.5933 
15005 5 27.2586 12.0307 9.65026 -1.58101 -12.5954 -17.5083 
14933 5 27.3368 8.19806 10.2714 9.65368 -13.7702 -17.8726 
15004 5 24.794 12.1885 10.2281 1.01659 2.9321 -14.3779 
14907 1 29.0423 10.186 10.3202 23.4 18.3981 23.3306 
15008 5 24.7476 8.17989 10.6591 15.7185 0.0133355 -3.44748 
14899 6 29.4402 9.94521 7.67407 -3.20103 0.075863 5.35138 
17637 7 24.0129 13.1402 7.48134 1.60654 0.642937 -0.198031 
25427 5 0.471403 16.2254 10.9577 6.44332 -3.60103 -4.1707 
25424 5 3.05777 19.7432 10.2643 -15.0249 -6.2555 -9.94623 
25423 5 0.62854 19.9386 10.7649 4.06718 -4.08085 -11.0072 
25422 4 1.53223 17.8586 9.5283 -9.61058 7.2931 -14.1186 
25421 3 1.35286 20.1653 8.46116 -3.19462 -2.5522 -0.0734591 
25419 2 1.68921 19.4163 9.80763 -41.5527 139.135 66.2545 
25358 5 3.0433 15.9649 10.3935 6.11281 -1.05216 -11.3081 
25352 2 1.62447 16.359 9.9389 56.3036 1.82731 34.8021 
25333 1 4.76049 17.9652 10.8964 -5.5843 12.8243 -15.966 
25357 3 1.27516 15.4524 8.77037 -12.0455 -17.394 19.8004 
25460 9 1.6173 15.8283 7.87293 0.0901304 0.357852 4.26175 
25349 1 4.58657 14.1062 10.6957 6.95621 16.1022 -6.03776 
22803 5 6.49129 16.0975 10.8756 1.04364 -1.11605 3.39256 
22875 5 6.46084 20.071 11.1158 20.3095 8.28106 14.2462 
25459 9 1.48999 13.6574 8.56205 -1.46409 5.13825 -4.15985 
22801 3 7.03055 16.5942 8.55987 -2.13719 -6.79844 4.32836 
2179 7 -0.387305 20.8468 8.22815 14.3438 2.14722 -6.4007 
22805 3 7.32975 19.3599 8.91011 -8.33269 -8.70368 25.6924 
22908 9 7.54595 19.9046 8.12021 0.00610973 0.262599 6.55405 
22774 6 7.84223 14.1301 6.46407 2.08607 1.34641 1.75988 
22907 9 7.21638 17.5067 8.66763 -0.132513 20.1897 1.60722 
22800 2 7.69826 20.1918 10.1825 70.3699 57.73 38.0884 
22810 7 9.52718 17.6319 7.67339 -2.06228 0.927669 -1.99324 
22775 6 10.3724 17.5576 8.1234 -17.9378 -8.84897 6.61283 
22811 7 11.0269 17.744 7.42304 6.0491 1.01986 -1.26087 
20249 3 13.6146 20.1923 8.5115 -16.9436 -15.7369 20.1064 
22799 2 7.50164 15.6895 9.76752 0.383456 20.2234 66.6234 
20181 4 13.1648 15.598 8.7498 -9.67525 -31.9274 -11.6151 
20250 4 13.59 17.8559 9.69511 -13.5661 6.93363 -27.0953 
20247 2 13.6446 19.4223 9.89672 1.55875 28.0108 65.6798 
20175 2 13.7411 16.3389 9.95052 44.4401 114.945 89.8034 
20255 5 12.7826 16.0392 11.1348 -2.80635 -11.239 -16.6859 
20251 5 12.5994 19.887 10.8751 -0.810636 -0.38876 8.76312 
22797 1 10.5866 17.8329 10.6706 3.48648 -1.58641 19.2946 
22804 5 8.85928 16.0465 10.2629 -4.46065 -11.0261 -13.814 
22806 5 9.15709 19.6726 10.6518 26.4327 -12.3726 -11.4268 
20209 6 12.874 15.0323 5.7533 0.499354 -0.347433 1.53218 
20174 8 12.7095 14.4625 7.54514 27.093 10.7602 -54.5217 
22802 4 7.35344 14.1712 9.46207 -20.6826 9.60291 -27.6387 
22707 1 10.7485 14.2517 10.2767 11.0057 10.5422 -39.9245 
20180 3 10.8086 14.0423 7.95232 18.275 -8.76982 4.95004 
20260 7 13.0324 18.8856 6.99744 0.117769 1.32518 1.24994 
20261 7 12.9162 17.3666 7.33817 -0.615116 10.5808 5.51767 
20401 7 13.4229 15.9899 5.62814 -0.165348 0.311218 -1.28546 
20406 9 10.0189 14.4108 7.4707 -1.29676 2.8068 -2.35044 
20413 7 11.9327 15.1884 5.26927 -0.0688891 -0.0250011 -0.439591 
20222 6 12.7014 18.0477 6.67459 -0.724271 0.722148 -0.969001 
22813 7 7.7456 15.0607 6.62462 -0.0745243 -0.0536568 0.0743452 
22812 7 7.44152 13.8113 7.30537 0.694724 1.3889 6.62831 
17861 7 18.0327 18.1656 5.18632 -0.0416966 -0.0258284 -0.195529 
17849 7 19.1146 19.332 5.5722 -0.0538225 0.152082 -0.5663 
17657 6 18.7692 18.3451 5.88217 -4.80306 -2.63741 15.242 
20252 5 14.9691 19.7344 10.5394 -8.27656 -13.6303 -17.9635 
20182 5 15.2166 16.0409 10.213 -3.83374 -20.3163 -14.6335 
17622 8 18.5634 18.0799 7.75046 32.1481 27.722 -14.5003 
17854 9 15.9449 18.6012 8.0719 -0.33827 1.99172 -3.2944 
17628 3 16.7563 18.0742 8.25458 4.10204 -9.90096 9.62216 
17624 4 19.3217 16.6826 8.46567 -7.68705 -11.4506 -3.72129 
17629 4 18.9827 19.4332 8.85904 -13.5677 -12.1797 1.44432 
17621 2 19.6951 15.6526 9.54627 45.5654 94.4035 82.665 
17623 2 19.5501 20.2671 10.0023 52.3098 24.8048 76.7209 
17630 5 21.0316 19.7719 10.2793 12.4734 -2.42701 -16.194 
17627 5 21.1919 15.89 9.96206 1.06959 -17.6002 -17.2814 
20155 1 16.8424 17.9752 10.6946 0.875096 10.4987 -38.5707 
17626 5 18.7672 15.8963 10.7355 -8.69667 -8.64331 -12.2929 
20171 1 16.7158 14.1373 10.3208 5.1997 6.58176 -12.2886 
17625 4 19.606 14.0957 9.12525 -5.8833 8.01591 -11.8666 
17564 7 21.4906 17.2833 7.58657 -0.631115 1.54249 -1.32497 
17703 5 18.6795 20.0258 11.2014 -15.2016 -12.3305 -21.898 
17709 7 19.905 20.6273 7.34679 2.87657 4.88378 4.18718 
20259 7 15.568 20.8847 8.4035 12.1098 3.4802 -2.41674 
17526 6 22.4132 17.452 7.70597 -7.39085 -6.52568 18.4989 
17563 7 22.8092 16.6576 7.3521 0.23518 0.33581 -2.0184 
17619 1 22.5682 17.9268 10.3236 11.4316 12.7501 -21.3289 
15250 9 25.4259 16.554 7.3496 3.17675 4.14589 70.3075 
15006 3 25.6058 15.7572 7.92658 -17.0364 -12.1771 55.501 
15072 4 25.3173 20.4252 8.40544 -12.7575 -7.68949 -2.57724 
15073 4 25.9599 17.9542 9.15621 -15.5731 6.18317 -35.3398 
15069 2 25.8295 19.4844 9.52152 46.0331 195.668 67.168 
15075 5 27.2671 19.8707 9.91392 5.2933 -4.10401 -14.5047 
15001 2 25.8934 16.4473 9.39988 31.2946 21.7972 35.7164 
15007 5 27.2951 15.9854 9.7832 -0.432828 -10.3293 -16.4546 
14980 1 29.1857 17.8209 10.1444 -13.2064 -20.8186 15.8538 
15074 5 24.8028 19.6389 10.6176 -6.12335 -5.19898 -20.0818 
15079 5 24.8396 16.1163 10.4638 8.76186 -3.33157 -0.297497 
12533 7 25.4571 18.3754 7.23091 -0.468574 4.35474 5.84849 
17532 1 22.9834 14.1035 10.1761 9.46258 11.7619 9.81239 
14998 1 28.6373 13.9834 10.0874 19.7692 24.7413 14.252 
12492 6 25.1645 17.9196 6.43544 -1.25867 -1.69764 -0.913427 
12532 7 24.2391 17.8074 6.45162 -0.0729709 0.00795235 -0.23185 
17636 7 24.2982 14.6547 7.77674 3.10694 -4.72955 -4.54409 
17597 6 27.3956 19.7327 6.47718 -16.2654 -0.907721 1.11309 
17635 7 27.0344 19.9354 7.31032 6.31175 1.126 -2.33512 
17596 6 23.5563 13.9987 7.66239 -11.3671 -1.52291 4.62904 
14974 6 28.7308 14.0837 7.53935 -5.54951 -10.8103 7.38567 
17634 7 26.9707 18.9124 6.11254 0.286632 0.566597 -0.154775 
15084 7 28.6931 18.2675 6.90767 0.581392 2.75021 -1.54172 
15012 7 28.1952 14.867 7.30744 1.75427 1.79006 -1.74539 
15044 6 29.2899 17.8272 7.55162 -18.303 -15.135 14.3022 
15011 7 29.5706 14.1102 6.99075 5.03443 0.864271 -0.286117 
25461 9 1.63963 21.1191 8.56579 -0.471878 8.99725 -6.06125 
25417 1 4.459 21.7465 10.9217 -17.2031 -20.3757 -10.8407 
24923 5 0.754769 27.5218 10.9484 6.03081 2.0712 -2.32794 
25425 3 1.35108 22.98 8.77836 -10.4326 -8.15851 18.9048 
24927 5 0.559259 23.61 11.1153 15.7325 -1.74339 7.65196 
25426 5 3.10363 23.8017 10.4009 3.61034 -9.45769 -9.37985 
25420 2 1.64879 23.9265 10.0018 35.1059 97.6543 58.221 
25401 1 4.97038 25.5329 10.7242 11.5141 4.76727 0.448272 
24924 5 3.18735 27.1766 10.4054 -6.13908 -5.9985 -14.2845 
24922 4 1.38256 25.4386 9.75254 -16.2579 10.5447 -16.6466 
24919 2 1.7823 26.9563 9.95451 0.109772 143.72 60.4631 
24921 3 1.55556 27.7248 8.56562 -3.18118 -0.907893 8.38094 
25462 9 1.60156 23.3783 7.96981 -0.0569672 0.116135 1.80732 
22871 5 6.64021 23.6959 10.9095 4.89893 -4.86498 -4.70373 
25451 9 2.36751 27.8615 8.13061 0.0494711 0.480044 1.54855 
22375 5 6.78156 27.3777 11.2762 2.2806 -3.69121 -3.1162 
20355 9 13.7553 21.1037 8.67011 -2.81858 21.2128 -1.03308 
22873 3 7.36095 26.8242 8.94079 -1.5885 -2.67938 22.433 
22910 9 7.83453 27.1872 8.16884 0.0145064 0.298477 5.20106 
22881 7 10.5673 22.2037 7.78641 0.171233 0.145363 -0.602901 
22880 7 12.0072 21.7432 8.22322 12.0313 4.38367 -4.63869 
22869 3 7.56442 24.0265 8.5961 -0.837255 -1.25168 0.727716 
22842 6 11.0399 21.8185 8.50693 -11.4454 -8.44942 2.77196 
22909 9 7.42422 24.9915 8.72358 -0.327084 9.41978 -0.659522 
22870 4 7.80675 21.6814 9.76784 -9.61108 13.091 -15.0352 
22781 1 10.8959 21.6885 11.0129 -25.6164 -19.3597 25.1452 
22868 2 7.76545 27.7412 10.1816 36.6312 97.4686 42.3188 
22867 2 7.78902 23.2324 9.92461 52.8227 189.155 72.701 
22381 7 12.0152 26.341 8.4485 10.9963 9.08942 -1.61898 
20253 3 13.4682 23.4016 8.82795 -29.0564 -27.6511 6.47489 
22380 7 10.8121 26.2531 7.54966 0.0733533 0.105164 0.0950719 
22342 6 11.2091 25.8188 8.3988 -19.2574 -2.52437 30.237 
20317 3 13.3219 27.8427 9.08682 -10.0046 -12.9409 -7.74973 
20248 2 13.7696 24.0294 10.2263 6.82905 3.05825 110.89 
20318 4 13.624 25.5447 10.0164 -28.8254 -19.0015 -44.1135 
20315 2 13.7788 27.0543 10.3348 50.2446 -14.9286 84.6852 
22865 1 10.6865 25.3992 10.9226 12.5425 11.1039 22.9422 
22872 5 9.17462 23.6871 10.462 5.52571 -15.4641 -14.2848 
22874 5 9.24947 27.6706 10.5948 6.91431 -9.67952 -10.7077 
20356 9 12.5954 23.6209 8.49206 10.249 3.84979 -9.89243 
25431 7 14.1509 26.52 7.83751 1.04452 4.70984 6.69801 
20323 5 12.8525 23.6161 11.429 2.16491 -7.59558 0.711426 
25430 7 14.093 24.9955 7.86813 1.63776 4.70763 10.3994 
25395 6 14.4016 25.7329 7.27378 -0.136966 0.0929116 -0.157213 
20258 7 15.2294 22.3163 8.12146 1.30972 0.0987871 -1.45102 
20223 6 16.0015 21.7513 8.2238 -7.1981 -1.13135 9.1973 
20245 1 16.5342 21.695 10.8038 16.317 20.6983 29.6723 
17698 4 19.4354 21.7483 9.56107 -11.8081 -3.68522 -28.7125 
20320 5 15.2214 27.4242 10.856 4.62429 -11.1197 -15.015 
20254 5 15.1801 23.5949 10.561 -15.794 -11.3502 -20.7038 
20329 7 17.2434 26.6466 8.28058 3.99957 3.1825 -3.6438 
20328 7 16.0419 25.8023 7.61998 1.69502 -0.0216534 -0.0876776 
17803 9 18.6355 24.4714 8.19816 9.10669 9.18399 -0.702603 
20290 6 16.6573 25.8385 8.42977 -26.9379 -4.59815 8.54363 
17697 3 19.4666 23.9299 8.24968 -7.20084 -15.2792 7.85626 
17701 3 18.7572 27.5768 9.07536 -11.2647 -29.2699 -3.21732 
17695 2 19.6311 23.298 9.64847 0.690068 5.06165 79.5958 
17696 2 19.6976 27.9701 10.2409 33.2421 98.9944 91.1755 
17700 5 20.9899 23.6351 10.1729 -17.4434 -7.61887 -19.5816 
17702 5 21.0953 27.3466 10.1236 7.95055 -13.2354 -20.9403 
17699 5 18.7076 23.7838 10.7613 -3.04008 -4.13431 0.970908 
20229 1 17.0048 25.6018 10.9426 18.2508 14.7943 -14.4639 
17708 7 20.0702 22.1005 7.0657 -0.260101 1.37474 0.688931 
17670 6 20.1319 21.2549 6.64674 -0.721927 0.878885 -1.16233 
17707 7 20.7868 25.2363 7.6314 4.65597 4.89434 -0.143339 
17706 7 21.1787 26.5559 8.43819 0.0934424 6.44597 6.75494 
17671 6 21.5933 25.7538 7.94146 -0.21947 -4.60434 5.78074 
17804 9 18.1596 28.2261 8.79174 4.2893 -0.408522 -3.06872 
15302 9 22.12 22.0167 7.2663 -10.8072 2.26422 -0.799053 
15082 7 28.9341 21.4367 6.98265 -0.143037 1.89283 -3.07916 
15309 7 26.1711 21.1856 5.56242 -0.0524053 0.35263 -0.58077 
15297 7 25.7773 22.9358 5.36905 0.0240009 0.421063 0.0402462 
15076 3 22.8653 21.7306 7.945 5.34298 -10.136 7.25117 
15105 6 25.4296 21.9972 5.7434 2.54373 2.8372 8.69677 
15067 1 28.5009 21.8246 10.3102 7.1763 14.0286 39.5671 
17603 1 22.8719 21.8054 10.3091 41.4807 30.8975 56.7504 
15070 8 24.6898 21.8654 7.53391 8.38248 21.7715 -6.25279 
15157 7 24.761 24.7113 6.5409 0.0618468 1.3901 -2.24118 
17693 1 22.4585 25.6458 10.3024 35.3907 46.8785 76.4481 
15118 6 24.3516 25.0692 5.80024 0.218464 -0.0137493 -0.0804256 
15156 7 23.4675 25.4068 6.08223 0.346986 0.0646097 -0.0164223 
12750 9 28.7793 27.0604 8.02173 -18.1645 -1.32599 -3.53146 
15145 3 25.8709 28.1424 8.32624 -24.685 -9.84995 24.1487 
15077 4 25.2347 23.1977 8.50469 -14.601 -21.6463 -11.3076 
15146 4 25.5466 25.6818 9.29943 -7.43769 17.9687 -15.1303 
15143 2 25.8227 27.2278 9.63665 32.8028 57.4237 40.975 
15071 2 25.6377 24.1622 9.58877 41.1643 136.471 67.8121 
15078 5 27.0823 23.775 9.8664 3.63957 -1.40784 -12.1733 
15148 5 27.2019 27.5255 10.2775 11.4842 -13.26 -15.7798 
15051 1 28.9278 25.6837 10.4438 0.204122 13.0688 43.7458 
15147 5 24.7278 27.7419 10.5663 3.88039 -1.744 -7.92073 
12524 3 29.1596 26.0649 8.01414 -11.2683 -1.23752 8.9806 
15045 6 29.2043 21.7754 7.82857 -18.4618 -10.8625 5.19382 
15251 9 25.5134 27.6474 7.63837 -0.107678 -0.316418 15.5237 
15151 5 24.6677 23.8201 10.7274 -4.82644 -8.10698 -16.2295 
25272 7 0.217111 4.33184 16.2875 5.56878 -0.319257 -0.303902 
25198 5 4.5419 2.55475 12.6561 -15.8752 -8.20074 -9.92427 
25195 5 4.3158 -1.09258 12.7632 -0.774828 -3.34373 4.36618 
25511 9 -0.0162322 1.35177 16.1093 -24.5251 3.359 -0.856196 
22635 1 6.05896 0.692999 12.8525 -37.9597 -13.2564 -11.9396 
25268 5 2.06322 2.89899 12.9931 0.745596 -8.89947 -23.237 
25258 1 0.250924 4.4912 12.7638 -5.61883 -8.26976 6.27801 
25207 1 0.476342 0.786529 13.0733 12.7978 40.2448 24.8949 
25191 2 3.47612 3.03985 13.5769 18.9615 44.3568 70.191 
25263 4 3.57926 4.53329 13.9916 -25.8247 -5.04166 -31.6465 
25197 4 3.26023 2.0922 14.7531 -12.4745 -23.3011 -11.2435 
25192 4 3.04502 -0.482259 14.848 -8.19431 -22.9274 -10.4935 
25196 3 0.712642 1.06023 15.3949 -7.80486 -17.8961 11.8747 
25190 8 2.50733 0.88318 15.8109 -59.0729 10.7186 -71.1122 
25240 6 3.27585 0.776083 17.5972 3.23724 -21.2529 -4.91014 
25519 7 3.54728 1.61843 18.1383 -6.49984 -1.19745 -19.2043 
25507 7 2.74078 0.182177 18.302 -1.31327 3.30024 -25.5836 
22649 6 4.09338 4.64034 16.9812 0.591722 -7.38434 -0.020283 
25308 6 0.0136773 4.23395 15.3406 -25.7038 -0.715935 17.6822 
22959 9 6.08484 4.90365 15.885 7.08081 4.60177 -2.42912 
25270 6 1.69962 3.59063 17.8257 -29.4883 -5.99423 -40.9188 
25310 7 2.36079 3.17071 18.3687 -1.24431 2.50295 14.9995 
22655 1 6.37544 4.67075 12.8239 1.90344 11.3552 2.06648 
25194 5 1.89442 -1.62182 13.1754 -0.231455 -13.6756 -19.8462 
25189 2 3.31878 -1.5892 13.8009 44.2 214.515 96.3032 
25309 7 1.02518 3.92155 18.3283 -0.28262 -1.80356 -4.77837 
22683 6 6.21369 0.469188 15.4155 -8.20556 -7.99934 3.33432 
22650 7 6.6083 0.900688 16.1849 1.9931 3.22095 1.85582 
22684 7 3.14328 4.41253 17.1186 10.6405 -0.922307 -3.77665 
22644 3 6.83355 4.63208 15.263 20.1682 -13.2969 13.9628 
22760 7 5.24931 4.74212 18.5744 7.35915 2.43098 6.69029 
22651 7 5.26034 0.331699 15.5982 2.50558 2.94842 -4.92049 
22685 7 3.98466 5.20483 16.1522 -7.01978 0.418196 -0.206377 
22687 7 6.06189 1.10148 18.837 5.63402 0.888596 -0.345529 
25236 7 1.20205 1.4783 18.635 0.930632 9.11271 2.9662 
25201 6 0.468838 1.03094 19.1034 -7.16237 -10.5946 19.2917 
22759 7 6.73838 5.10636 18.9017 6.5575 5.48928 -2.02378 
15136 6 23.6576 27.501 18.9432 -13.6618 -9.73373 19.3495 
20061 7 7.66622 2.08951 18.8715 14.494 3.81406 16.9351 
20023 6 7.48143 1.77453 17.9657 1.49349 -1.91381 -4.64838 
20063 7 13.7141 -1.36975 18.2106 5.61616 3.93076 -9.0034 
20022 6 13.0564 -0.974042 17.5874 3.45539 -20.7063 11.7607 
20062 7 8.37341 1.33375 17.7693 11.9933 2.30604 -1.60149 
20101 7 10.7223 -0.801739 17.4037 -0.775053 -2.76728 -5.7439 
22931 9 10.0925 -0.819617 15.6478 -11.9481 12.2303 -80.661 
22643 5 10.3472 2.57234 12.1955 -2.6743 -3.96338 -7.12784 
20083 1 12.0539 4.57824 12.2941 21.9474 13.1819 22.9476 
22642 5 7.78438 2.32799 12.6693 -0.617913 -6.36034 -18.3574 
22572 5 10.3915 -1.19034 12.4814 -2.13164 -8.37828 -12.5583 
22647 5 8.01803 -1.15376 13.3887 4.3461 -13.8869 -16.5947 
20029 1 12.4935 0.818447 12.5759 -5.38179 3.76971 -9.54977 
20095 5 13.8672 2.81253 13.0198 -6.21571 -11.9118 -12.2765 
22637 2 9.23854 2.21284 13.1776 44.8157 -88.2737 67.4104 
22565 2 9.47766 -0.798971 13.6553 37.6753 73.3659 50.5253 
22641 4 9.6135 0.790931 13.697 -27.3091 -24.006 -26.535 
22640 4 9.10375 3.21619 14.2882 -9.18353 -8.4115 -2.17925 
20060 6 12.2021 1.0375 15.1613 -1.93063 -8.03739 7.95752 
20025 7 11.1767 0.971118 15.1872 18.1345 1.46412 0.0987933 
22638 8 8.68582 4.51278 15.4767 45.7536 46.3304 22.3992 
20024 7 12.3946 0.553665 15.9465 1.27443 2.72723 -3.59135 
22688 6 9.60181 4.31683 17.1677 1.49002 -3.62799 22.0993 
20130 6 9.96351 -0.26936 17.318 -9.82494 -11.0987 -12.4576 
20016 5 13.8732 -1.10957 13.0216 3.461 -15.8629 -17.9664 
20100 7 9.37158 -0.610635 17.987 -6.98682 -3.33426 -9.50524 
22967 7 9.19892 3.46376 17.6916 -0.0832601 -3.82989 -14.7993 
22571 3 10.0833 -1.50046 14.8784 -25.133 -11.3054 -27.2205 
22955 7 9.49532 5.11703 17.8751 -1.13829 2.2492 -12.6115 
20379 9 14.3993 1.99631 15.4108 5.47859 4.70649 9.93547 
20064 7 13.7048 -0.81646 16.8346 8.41133 0.454161 0.937042 
20135 7 12.1853 0.290413 18.7415 6.65111 8.2967 13.4646 
25465 9 2.95844 28.4899 19.2785 1.13934 10.2087 -30.5787 
2035 7 -0.401953 13.4002 7.95427 4.70656 0.944726 -2.66307 
12587 7 29.7036 27.8565 15.9404 11.6066 6.16287 -5.35382 
12752 9 29.8534 4.53957 18.6586 -40.8678 2.28564 -5.93026 
20378 9 15.4007 0.0444891 14.8487 0.127096 72.846 27.2332 
20012 2 15.2359 -1.61828 13.5115 13.1782 -78.7537 69.0541 
17469 5 19.9364 -1.30131 13.4326 7.2295 -12.6622 -9.0858 
20017 5 16.2815 -1.21496 12.5395 7.88902 -1.81642 -5.81697 
20020 5 16.2894 2.4578 12.6312 -4.26762 -4.33344 -7.48125 
17477 1 18.4308 4.50707 12.7514 46.2712 39.8145 50.9181 
17458 1 18.218 0.637135 12.871 38.7338 27.1113 12.8233 
17464 5 19.9587 2.61017 13.0923 0.555447 -11.6019 -14.4261 
20014 3 15.3481 -0.927596 14.9324 -8.47622 -9.48441 30.1383 
20013 2 15.2355 2.86552 13.6686 27.9569 -26.5631 58.2279 
20089 4 15.4847 4.41259 13.8828 -14.2051 9.76009 -21.144 
17460 2 21.2934 2.30374 13.8302 64.1429 181.92 99.8215 
17386 2 21.2555 -0.760946 14.0881 48.1082 166.036 35.7915 
20019 3 15.2403 1.91521 14.9168 -10.305 -1.47597 13.2224 
17466 6 18.2008 0.735703 15.4779 -10.9833 -4.51655 18.3883 
17494 7 18.5661 1.12896 16.3108 4.2981 3.84064 2.1637 
17493 7 17.2734 0.452918 15.6854 11.6679 3.19131 -5.8113 
17471 6 19.408 2.95772 17.3222 -12.6444 -3.72246 0.396047 
17510 7 20.1916 3.10165 16.7461 8.00623 1.26338 7.14795 
17509 7 19.7944 2.52835 18.1478 2.80667 2.62537 5.00543 
17463 4 21.2166 0.803669 14.1626 -13.4717 22.2749 -28.8871 
17472 7 18.632 3.87529 15.8719 2.40807 12.9635 13.069 
17508 6 18.3209 4.586 15.1741 -10.762 -8.7442 1.21265 
17473 7 17.3625 4.52498 15.437 3.22188 0.438259 -0.756769 
14959 7 20.9595 -0.732711 18.6123 0.472381 5.6787 8.48161 
14960 7 21.4957 0.679152 18.4323 -3.32236 7.59334 4.29822 
17391 3 21.6592 -1.45295 15.3936 -19.2769 -26.3125 12.8984 
17825 9 21.3841 -0.902248 16.1837 -2.141 6.56745 123.936 
17462 3 21.3241 2.95329 15.2278 -17.4053 -15.0535 5.69238 
14918 6 21.4 -0.184484 17.9454 2.30631 7.24398 -7.01456 
17583 7 18.566 4.31875 18.8364 2.83823 1.99454 -2.05906 
17826 9 21.3826 3.94084 15.1397 0.0629808 61.2528 12.3936 
25237 7 -0.297884 1.24709 18.4894 13.8671 1.13966 2.01008 
24916 7 -0.341332 24.1634 16.2169 5.20792 -0.773735 -5.50356 
25219 7 -0.361453 1.89479 7.96548 9.42296 0.924666 -1.018 
17392 5 22.3788 -1.113 13.0479 14.1267 -0.056954 7.11166 
15272 9 27.037 -0.741304 15.5869 -9.15321 -6.14258 -35.6718 
14833 2 27.436 -1.7351 13.7653 4.65505 -145.55 76.5021 
14837 5 26.0685 -1.25524 13.3193 -16.3099 -14.4172 -16.181 
14835 3 27.7791 -1.19195 15.2096 -23.3225 -45.9947 -10.1678 
17465 5 22.4822 2.65522 12.8638 5.81585 2.63485 5.47819 
14838 5 28.4591 -1.17305 12.8109 -9.12068 -10.4008 -18.6205 
14840 5 28.4301 2.34442 12.9979 2.9973 -0.399821 4.72287 
14906 1 24.3647 4.44957 12.9572 50.2494 41.057 -67.4671 
14849 1 24.5191 0.684911 13.2379 24.9221 19.9405 -12.1157 
14917 5 26.0089 2.42981 13.448 1.89598 -16.726 -13.1604 
14911 4 27.5781 4.44263 13.9748 -24.8106 -11.0286 -32.7615 
14834 2 27.3716 2.93216 13.999 40.445 87.5566 68.8127 