ITEM: TIMESTEP
350000
ITEM: NUMBER OF ATOMS
25517
ITEM: BOX BOUNDS pp pp ff
-3.8959205201285124e-01 6.0088135642019459e+01
-1.9452389155355383e+00 5.9115524189537531e+01
-1.2206056431032383e+01 1.1390111600702880e+02
ITEM: ATOMS id type x y z v_stressx v_stressy v_stressz 
25292 7 5.89857 3.03966 7.5916 -2.42436 -8.47787 -6.14226 
25293 7 5.98077 1.53035 7.7064 -1.86586 -5.90917 -1.9166 
25252 6 5.35811 2.25094 7.51796 -6.37978 -3.25028 0.203618 
25287 5 0.61597 0.755495 10.7564 7.98351 -1.49497 5.06434 
25283 5 2.94291 4.2301 9.842 11.1378 6.77626 -13.08 
25281 4 1.3887 2.44216 9.07367 -13.7075 1.92452 -17.332 
25280 4 1.07853 5.00258 8.46007 -12.8288 -8.56203 -6.8669 
25277 2 1.45655 3.94107 9.49571 51.1781 42.7491 80.1974 
25215 5 2.99957 0.588718 9.72621 -14.5069 -10.0134 -11.5981 
25209 2 1.59287 0.935181 9.44522 7.20089 -55.5535 73.2117 
25188 1 4.8243 2.58953 9.97468 5.42842 1.4566 13.9476 
25214 3 0.796635 0.0137284 8.44439 -1.75617 -3.92635 1.97451 
25282 5 0.520916 4.37471 10.6565 -15.1561 -14.3499 -18.5886 
25458 9 1.40812 -0.435335 7.83607 0.0269447 2.08274 1.69799 
25206 1 4.52732 -1.17961 10.115 34.7441 38.0484 19.7759 
22660 5 6.52822 0.875659 10.2203 -1.35917 -5.76759 -15.4383 
22735 5 6.623 4.87348 10.5536 2.40022 -9.08891 -14.2397 
25505 7 1.83983 5.65447 5.50835 -0.0546675 -0.157436 -0.296159 
22662 3 7.17647 4.29529 8.22411 -12.206 -23.3986 -19.1764 
22658 3 7.30314 0.346889 7.89736 -15.0902 -15.2032 -11.4158 
22905 9 7.65252 -0.485879 7.46068 0.0267525 -0.4154 -4.47127 
22906 9 7.50322 4.57024 7.35908 -2.69359 4.38249 9.86084 
20115 7 11.1372 2.292 6.49758 0.445932 -0.0061666 -1.13577 
22656 2 7.7059 0.365729 9.40584 22.6053 74.2314 60.7587 
20116 7 12.1136 2.88755 7.40659 19.6356 6.72673 2.73085 
20078 6 11.1398 2.86581 7.23657 -15.9268 -11.6974 1.48901 
20106 3 13.741 4.72985 7.46261 -15.7717 -11.1128 42.1655 
22657 2 7.60419 5.1024 9.41016 54.3846 -14.9678 22.1367 
20036 3 13.619 0.47741 7.57109 -16.5384 -19.5887 16.5383 
20107 4 13.6664 2.6833 8.8298 -17.9764 -14.2213 -33.9539 
20104 2 13.8784 4.18168 8.97251 31.7514 36.883 95.508 
20031 2 13.7132 1.1448 8.96008 62.6837 164.062 14.4779 
20108 5 12.6966 4.70757 9.81807 14.5543 11.8465 1.82117 
20112 5 12.4932 0.846951 9.91178 10.8551 -0.290431 6.2294 
22654 1 10.4859 2.78478 9.68506 11.4088 10.5064 10.5254 
22661 5 9.03983 1.11007 9.56315 -7.48306 -6.52762 -15.7235 
22663 5 9.10858 4.7108 9.73761 4.41457 -12.9427 -15.0178 
22563 1 10.886 -1.13469 10.1589 0.0898737 -0.485016 -10.1909 
22659 4 7.7627 -1.12896 9.68153 -9.50157 -34.721 -34.2122 
22629 6 11.3751 -1.065 7.76545 -16.8239 5.02518 2.35131 
22669 7 11.9249 -0.207968 7.44815 1.30285 5.21648 -1.24061 
20352 9 13.8605 1.22514 6.87465 0.71759 12.5422 14.7201 
20189 7 14.2777 3.18994 6.51456 0.286536 13.5337 8.33876 
20353 9 14.543 5.23857 7.22704 7.76075 13.2162 16.8113 
20148 6 14.5671 2.45013 5.87332 0.144169 0.0565837 0.100082 
22740 7 11.2703 5.5881 6.8279 3.28543 1.48418 -1.1326 
22738 7 8.76742 5.41578 5.90114 -0.668962 0.699118 -1.32992 
22701 6 7.85394 5.37142 5.69312 0.410177 -0.325593 7.83669 
22739 7 7.886 4.86164 4.87022 -0.01088 0.0202844 0.00821666 
22670 7 11.9327 -1.89861 7.72342 1.0527 1.66852 -5.21803 
20188 7 15.4435 2.20345 6.22553 0.814675 -0.134635 0.067479 
20037 5 15.0057 0.565552 9.66218 -1.05167 -6.90581 -13.0806 
20118 7 17.8719 2.63796 7.70159 5.67067 -0.317624 -2.9069 
20117 7 17.6995 1.17882 7.44002 3.04684 2.5611 -4.69435 
17799 9 19.455 -0.241526 7.33338 0.340801 6.60387 17.9315 
20077 6 17.1284 2.01775 7.60787 -23.3495 2.32626 26.6991 
17484 3 19.536 4.02271 8.03155 -4.22128 -2.58614 -2.39195 
20109 5 15.1822 4.68195 9.53593 -5.89209 -7.42852 -17.7398 
17480 3 19.3808 0.510653 7.95906 -16.5408 -31.9284 11.087 
17478 2 19.7385 0.13463 9.405 32.7411 34.7187 48.2483 
17479 2 19.7269 4.90401 9.32133 46.816 113.58 59.8201 
17485 5 21.0972 4.45706 9.83859 5.15102 -16.0454 -16.2708 
17483 5 21.125 0.57616 9.92672 5.11761 -9.9492 -13.2386 
17482 5 18.7273 0.612358 10.4453 0.958221 -3.65442 -5.68069 
17560 5 18.5746 4.39351 10.2378 -1.41788 1.3638 -11.9075 
20011 1 16.7883 2.43064 10.1919 48.5975 45.7926 21.2939 
20028 1 16.5417 -1.33752 10.1131 23.9137 17.3382 10.1188 
17481 4 19.613 -1.37684 9.30614 -12.4096 -19.6309 -38.0758 
17800 9 20.2785 3.41394 7.96437 0.317856 -2.88345 -5.4336 
20002 6 16.2002 -1.21507 7.53432 -10.4816 -7.52379 13.4327 
20044 7 15.5857 -0.449442 7.68688 4.38625 8.5771 -2.7966 
20043 7 16.3516 -1.12082 6.60323 0.283531 0.201736 -0.839516 
17377 6 19.8786 -1.6773 6.3322 0.246946 -0.139343 -0.0168249 
17415 7 20.5742 -1.92657 6.98281 2.87051 2.49296 2.14033 
14864 7 23.6314 3.83266 7.75133 5.59489 -4.68861 -1.51671 
14825 6 23.2988 2.969 7.82153 -9.30314 -3.83541 1.47236 
14863 7 24.1611 2.53617 7.90018 3.88653 -1.31415 -0.661844 
17476 1 22.5994 2.5974 10.2549 -65.821 -41.107 45.8376 
14928 3 25.5679 4.59148 8.20809 -31.4764 -50.1575 -46.1332 
15246 9 24.7065 0.00657495 8.04332 7.98856 10.7732 19.8225 
14856 3 25.5405 0.383335 8.16649 -12.6039 -14.7772 11.0858 
14929 4 25.6618 2.47021 9.27814 -18.0925 -35.1036 -33.8712 
14851 2 25.7726 0.935136 9.6021 20.804 -189.899 74.998 
14926 2 25.8313 3.99121 9.61155 29.6787 146.687 88.5905 
14857 5 27.172 0.513951 10.0212 -9.74646 -11.8582 -20.5911 
14931 5 27.2703 4.30837 10.1061 -28.3328 -11.6088 -17.5719 
14832 1 28.9014 2.41808 10.4207 15.1191 11.981 56.4394 
14930 5 24.8007 4.37565 10.6576 12.1829 -4.74403 -13.4908 
14934 5 24.7275 0.511689 10.6576 4.25174 -3.98301 -0.906383 
17384 1 22.8636 -1.16741 10.5973 -0.160842 4.84235 4.48552 
14848 1 28.7231 -1.43222 10.2624 15.1603 18.8269 3.84235 
14898 6 29.1786 2.45721 7.88738 -13.748 -15.3028 5.92684 
15247 9 26.3681 4.66526 7.72718 -1.61313 -1.08943 -15.3233 
14826 6 28.1456 -1.3901 7.71182 1.21883 -3.67196 26.7406 
14861 7 27.5228 -0.59177 7.7367 5.01686 5.88901 -2.25188 
14862 7 28.7608 -1.17174 6.9734 0.155959 0.0391701 -0.0653209 
17565 7 23.8543 5.62398 7.62904 12.5311 3.76372 -1.67152 
17491 7 23.3409 -0.830267 7.25909 0.0990708 0.0722189 -0.455896 
12347 6 29.4782 5.3719 8.00631 -15.2318 -7.31975 4.07746 
14939 7 29.2544 3.33895 7.63004 0.450769 -0.924796 -1.18862 
17492 7 24.1978 -1.77871 8.08715 8.23195 2.49085 -6.36842 
17450 6 23.2929 -1.42611 8.02021 -21.6522 -6.95913 19.4601 
25291 7 5.22591 6.53661 7.32751 1.19231 1.66923 -3.15748 
25290 7 3.82687 6.55555 6.86919 -0.678871 1.68711 -4.4346 
25253 6 4.33607 6.71227 7.63615 -9.65614 -11.6959 2.10676 
25517 7 1.84279 7.29014 5.50902 -0.0248242 -0.0552414 -0.553518 
25313 6 1.21101 6.45671 5.78137 6.00282 -5.55268 30.3985 
25362 7 1.19888 10.608 6.31952 -0.017266 -0.0206483 -0.0192002 
25275 1 4.36027 6.50413 10.1833 4.34097 13.2708 9.06498 
25278 8 0.639374 6.49188 7.63496 53.0798 32.3531 9.72099 
22958 9 3.89074 10.3239 7.2783 -3.47475 1.49011 0.278596 
22732 3 4.70032 10.3548 7.96195 2.34119 -12.6494 13.344 
25359 5 0.701437 8.49354 11.0939 -9.86032 -10.5174 -16.2594 
25356 5 3.08021 12.146 10.2169 9.80636 0.115056 -12.8691 
25355 5 0.535314 12.2845 10.6518 -2.94686 -5.71211 -9.41572 
25354 4 1.48185 10.2856 9.54639 -13.9171 13.7789 -27.2505 
25353 3 1.39194 12.6945 8.41831 -12.2076 -7.60616 4.99818 
25351 2 1.63225 11.8296 9.72046 41.4395 49.3483 67.7984 
25286 5 2.93236 8.28049 10.0288 -5.73399 -16.1739 -19.2949 
25285 4 0.892127 7.85648 8.74192 -20.8403 -18.6236 -4.91817 
25279 2 1.49492 8.71367 9.83417 17.4014 97.1686 78.9229 
25259 1 4.86194 10.2149 10.3927 7.68293 9.29676 48.0772 
25327 6 1.60703 9.7444 6.34125 2.32637 1.44168 -0.813409 
25363 7 1.38635 9.50649 7.2315 0.522272 2.66362 1.4524 
22807 5 6.5607 12.2849 10.8694 -15.874 -14.502 -17.7149 
22730 5 6.65234 8.34528 10.5398 -4.6989 -14.9809 -13.2144 
22726 8 6.48614 10.4372 7.49213 -1.61242 17.9798 -25.5211 
22761 6 7.05704 10.8316 5.66761 1.76719 2.49963 6.8357 
22733 4 6.9844 11.7221 8.61372 -10.9079 -12.747 -2.59715 
22728 4 7.23016 9.05362 8.29312 -12.8851 -20.307 -5.89562 
22953 7 7.91026 10.1976 5.3838 -0.0660643 0.100514 -0.652372 
22965 7 7.33207 11.8331 5.45166 -0.0489864 0.141959 -0.277431 
22741 7 11.5 7.01103 7.05421 2.60827 -0.0287198 -1.51993 
22700 6 10.8104 6.36788 7.23855 -16.1611 -2.14228 17.9415 
22636 1 10.9188 6.69179 9.82281 3.9876 8.98143 11.3575 
22729 4 7.48133 6.61374 9.11192 -11.2692 -8.47275 -27.6236 
22668 7 10.5831 8.59932 7.42923 1.92394 4.36228 -3.12052 
22725 2 7.70374 8.13304 9.39568 27.28 32.1606 97.1713 
22727 2 7.53968 12.6129 9.75953 16.9474 133.251 79.7383 
22630 6 10.7174 9.56513 7.55044 -8.22682 0.680804 5.20377 
22667 7 11.6785 9.56 7.58776 1.27598 0.741058 -1.29633 
20110 3 13.3722 8.00482 7.87861 -11.0406 -1.1409 -4.05558 
20176 4 13.3404 12.979 8.33811 -6.63576 -6.98534 -4.05607 
20177 4 13.5478 10.5013 8.95979 -6.39624 -0.450607 -16.4722 
20173 2 13.7057 11.9908 9.40771 34.2737 -4.20086 76.6707 
20105 2 13.7244 8.93675 9.12343 -1.58274 6.86286 86.2845 
20178 5 12.5598 12.2564 10.4158 -7.82249 -12.6016 -22.0549 
20183 5 12.8988 8.51128 10.3587 -3.85426 -11.1392 -6.74202 
22734 5 8.97942 12.4092 10.1072 -12.4148 -12.6235 -17.4634 
22723 1 10.5486 10.4168 9.97488 -2.82442 4.39992 9.83954 
22731 5 9.11607 8.33188 9.85191 -15.7211 -24.4019 -21.8955 
20354 9 13.8366 7.1662 8.02076 -1.08222 -12.3101 -25.2365 
17489 7 15.3685 7.53149 7.27379 -6.19105 -2.26753 -3.74799 
17490 7 16.4114 7.08597 6.51817 -0.224524 0.0340175 -0.311947 
17451 6 15.9423 6.78743 7.29642 -18.8432 -17.2433 17.3374 
17555 4 19.5148 6.40419 9.24816 -10.9231 2.35745 -18.6178 
20102 1 16.4765 6.46221 9.86905 10.9152 0.291553 19.2369 
20179 5 15.0791 12.3713 9.86379 2.83062 3.62394 -11.3144 
20111 5 15.0953 8.51182 9.52882 -26.3179 -13.8593 -15.1432 
17802 9 19.4832 11.878 7.51898 -0.106316 -0.0992066 0.15684 
17554 3 19.6317 8.68088 7.9737 -1.88679 -5.34469 6.24768 
17801 9 19.3812 9.57046 8.10065 0.651855 12.1909 6.25471 
17558 3 19.3121 11.5602 8.35726 -4.29168 -2.07137 -0.424339 
17552 2 19.7279 7.97853 9.40881 25.6252 58.3172 61.7464 
17553 2 19.7446 12.5897 9.5152 42.3759 42.8112 65.4852 
17559 5 21.2085 12.1329 9.83297 6.9438 -0.492367 -10.5289 
17557 5 21.1128 8.33065 9.93016 0.918311 -11.5856 -15.9576 
17556 5 18.49 8.44005 10.194 12.3426 -3.77261 -6.96185 
17631 5 18.754 12.2185 10.6826 1.63577 -5.747 -1.16904 
20084 1 16.8199 10.2664 10.3615 -12.223 -5.15433 -0.100537 
17566 7 22.7737 6.49197 7.09029 0.0945036 0.0190901 0.0492761 
17525 6 23.2369 6.30614 7.97014 -30.008 -6.10871 17.3684 
15249 9 26.4199 12.3989 7.50271 0.848696 0.689057 0.254244 
14924 1 28.8784 6.30371 10.2599 25.0606 20.5846 5.34227 
17459 1 22.8153 6.36449 10.4136 -83.6268 -68.0823 33.8594 
17550 1 22.6813 10.1773 10.109 18.9583 17.7941 8.68929 
15248 9 25.0074 7.30471 8.25379 6.75718 8.89553 8.73253 
15002 3 25.5553 12.1132 7.86039 -4.91226 -8.81599 8.9052 
14932 3 25.8534 7.69566 8.37038 -4.68133 -4.20574 1.36479 
15003 4 25.6929 10.0578 9.40228 -9.12327 -5.77477 -23.0917 
15000 2 25.8234 11.5586 9.33827 29.9853 102.966 71.6188 
14927 2 25.9265 8.52626 9.67582 40.2608 66.2882 72.8114 
15005 5 27.2586 12.0307 9.65026 -1.65203 -12.7604 -16.5551 
14933 5 27.3368 8.19806 10.2714 9.70894 -13.7209 -17.33 
15004 5 24.794 12.1885 10.2281 1.07762 3.13891 -12.2595 
14907 1 29.0423 10.186 10.3202 23.4703 18.8791 21.7207 
15008 5 24.7476 8.17989 10.6591 15.592 -0.0920668 -2.90396 
14899 6 29.4402 9.94521 7.67407 -3.24099 0.0390883 5.33363 
17637 7 24.0129 13.1402 7.48134 1.61384 0.650157 -0.186962 
25427 5 0.471403 16.2254 10.9577 5.99077 -3.81481 -5.29122 
25424 5 3.05777 19.7432 10.2643 -15.2208 -6.47843 -10.3911 
25423 5 0.62854 19.9386 10.7649 3.91786 -4.25772 -10.4909 
25422 4 1.53223 17.8586 9.5283 -9.74276 7.12387 -14.5108 
25421 3 1.35286 20.1653 8.46116 -3.2395 -2.59509 -0.112511 
25419 2 1.68921 19.4163 9.80763 -40.4215 140.444 68.7763 
25358 5 3.0433 15.9649 10.3935 6.07341 -1.20038 -11.4009 
25352 2 1.62447 16.359 9.9389 57.1083 2.67828 36.6893 
25333 1 4.76049 17.9652 10.8964 -4.96886 13.2878 -15.4099 
25357 3 1.27516 15.4524 8.77037 -12.1853 -17.8893 19.5411 
25460 9 1.6173 15.8283 7.87293 0.0918237 0.364297 4.28746 
25349 1 4.58657 14.1062 10.6957 7.06097 16.6207 -11.1065 
22803 5 6.49129 16.0975 10.8756 1.14463 -0.754354 -1.2359 
22875 5 6.46084 20.071 11.1158 20.0471 7.79699 10.7269 
25459 9 1.48999 13.6574 8.56205 -1.0298 5.22289 -4.42642 
22801 3 7.03055 16.5942 8.55987 -2.28829 -6.98788 3.97383 
2179 7 -0.387305 20.8468 8.22815 14.435 2.2247 -6.22317 
22805 3 7.32975 19.3599 8.91011 -8.56816 -8.73947 25.6633 
22908 9 7.54595 19.9046 8.12021 0.0128099 0.261948 6.55413 
22774 6 7.84223 14.1301 6.46407 2.05339 1.26344 1.82369 
22907 9 7.21638 17.5067 8.66763 -0.0440515 20.2779 1.87391 
22800 2 7.69826 20.1918 10.1825 71.5832 58.26 36.7075 
22810 7 9.52718 17.6319 7.67339 -2.03064 0.957165 -1.96557 
22775 6 10.3724 17.5576 8.1234 -18.0071 -9.08538 6.56341 
22811 7 11.0269 17.744 7.42304 6.08548 1.0643 -1.22589 
20249 3 13.6146 20.1923 8.5115 -17.5449 -16.1847 19.9047 
22799 2 7.50164 15.6895 9.76752 1.57734 21.6848 71.7429 
20181 4 13.1648 15.598 8.7498 -9.76282 -31.9254 -11.6244 
20250 4 13.59 17.8559 9.69511 -14.0519 6.32449 -27.6813 
20247 2 13.6446 19.4223 9.89672 3.48693 30.1082 70.2789 
20175 2 13.7411 16.3389 9.95052 45.7687 116.08 86.0527 
20255 5 12.7826 16.0392 11.1348 -3.17122 -11.4915 -16.0886 
20251 5 12.5994 19.887 10.8751 -0.832866 -0.0722435 8.95543 
22797 1 10.5866 17.8329 10.6706 3.69458 -1.21626 25.2076 
22804 5 8.85928 16.0465 10.2629 -4.39401 -11.0799 -14.1098 
22806 5 9.15709 19.6726 10.6518 26.4866 -12.4936 -11.3525 
20209 6 12.874 15.0323 5.7533 0.476653 -0.367996 1.48437 
20174 8 12.7095 14.4625 7.54514 27.4254 10.9945 -53.8804 
22802 4 7.35344 14.1712 9.46207 -20.988 9.36105 -28.8654 
22707 1 10.7485 14.2517 10.2767 12.3229 10.6122 -5.64875 
20180 3 10.8086 14.0423 7.95232 18.1543 -8.88826 4.83387 
20260 7 13.0324 18.8856 6.99744 0.127288 1.34049 1.25237 
20261 7 12.9162 17.3666 7.33817 -0.558249 10.6555 5.48928 
20401 7 13.4229 15.9899 5.62814 -0.161374 0.31217 -1.27758 
20406 9 10.0189 14.4108 7.4707 -1.25824 2.85701 -2.34022 
20413 7 11.9327 15.1884 5.26927 -0.0684336 -0.0247045 -0.43878 
20222 6 12.7014 18.0477 6.67459 -0.741392 0.699869 -0.99305 
22813 7 7.7456 15.0607 6.62462 -0.0716428 -0.0490031 0.0671973 
22812 7 7.44152 13.8113 7.30537 0.733348 1.44948 6.57515 
17861 7 18.0327 18.1656 5.18632 -0.0413432 -0.0258088 -0.195543 
17849 7 19.1146 19.332 5.5722 -0.0513961 0.152411 -0.563635 
17657 6 18.7692 18.3451 5.88217 -4.92408 -2.6751 15.0962 
20252 5 14.9691 19.7344 10.5394 -8.74996 -13.7185 -18.2097 
20182 5 15.2166 16.0409 10.213 -4.0928 -20.4226 -13.8103 
17622 8 18.5634 18.0799 7.75046 32.4313 28.0553 -13.3535 
17854 9 15.9449 18.6012 8.0719 -0.274443 2.05256 -3.23375 
17628 3 16.7563 18.0742 8.25458 3.90541 -10.0937 9.28989 
17624 4 19.3217 16.6826 8.46567 -7.85377 -11.6369 -3.89026 
17629 4 18.9827 19.4332 8.85904 -13.7219 -12.2994 1.30829 
17621 2 19.6951 15.6526 9.54627 47.2257 95.4795 82.4514 
17623 2 19.5501 20.2671 10.0023 53.609 25.7488 73.6093 
17630 5 21.0316 19.7719 10.2793 12.5144 -2.53744 -14.64 
17627 5 21.1919 15.89 9.96206 1.01225 -17.7369 -16.6044 
20155 1 16.8424 17.9752 10.6946 1.53135 10.7567 -22.0551 
17626 5 18.7672 15.8963 10.7355 -8.80319 -8.59352 -11.9746 
20171 1 16.7158 14.1373 10.3208 3.76244 5.40145 -39.0419 
17625 4 19.606 14.0957 9.12525 -6.21723 7.82346 -11.6971 
17564 7 21.4906 17.2833 7.58657 -0.594053 1.58772 -1.18604 
17703 5 18.6795 20.0258 11.2014 -14.9453 -12.6815 -20.305 
17709 7 19.905 20.6273 7.34679 2.93308 4.97407 4.45806 
20259 7 15.568 20.8847 8.4035 12.2224 3.56369 -2.33469 
17526 6 22.4132 17.452 7.70597 -7.64174 -6.784 17.8153 
17563 7 22.8092 16.6576 7.3521 0.266775 0.375272 -1.87783 
17619 1 22.5682 17.9268 10.3236 11.6596 12.8089 -8.45231 
15250 9 25.4259 16.554 7.3496 3.25803 4.23573 70.5018 
15006 3 25.6058 15.7572 7.92658 -17.406 -12.4744 55.2754 
15072 4 25.3173 20.4252 8.40544 -13.043 -7.91121 -3.03069 
15073 4 25.9599 17.9542 9.15621 -15.8624 6.17321 -35.4398 
15069 2 25.8295 19.4844 9.52152 46.7635 196.376 68.618 
15075 5 27.2671 19.8707 9.91392 5.09052 -4.13989 -14.6153 
15001 2 25.8934 16.4473 9.39988 32.2974 23.1198 35.6382 
15007 5 27.2951 15.9854 9.7832 -0.61274 -10.6322 -16.2169 
14980 1 29.1857 17.8209 10.1444 -12.6846 -20.1585 14.8138 
15074 5 24.8028 19.6389 10.6176 -5.89631 -5.42507 -18.7599 
15079 5 24.8396 16.1163 10.4638 8.64728 -3.39335 0.575733 
12533 7 25.4571 18.3754 7.23091 -0.323991 4.48873 6.22793 
17532 1 22.9834 14.1035 10.1761 9.5961 12.0399 8.94913 
14998 1 28.6373 13.9834 10.0874 19.9263 24.9299 13.221 
12492 6 25.1645 17.9196 6.43544 -1.28506 -1.72175 -0.954935 
12532 7 24.2391 17.8074 6.45162 -0.0685751 0.0125355 -0.220981 
17636 7 24.2982 14.6547 7.77674 3.19169 -4.64609 -4.47333 
17597 6 27.3956 19.7327 6.47718 -16.4434 -1.07643 0.995335 
17635 7 27.0344 19.9354 7.31032 6.41678 1.20416 -2.23823 
17596 6 23.5563 13.9987 7.66239 -11.4277 -1.61934 4.50778 
14974 6 28.7308 14.0837 7.53935 -5.7708 -11.0166 7.02648 
17634 7 26.9707 18.9124 6.11254 0.290385 0.569868 -0.153887 
15084 7 28.6931 18.2675 6.90767 0.598745 2.77341 -1.53346 
15012 7 28.1952 14.867 7.30744 1.78073 1.81451 -1.69433 
15044 6 29.2899 17.8272 7.55162 -18.4865 -15.4162 14.1307 
15011 7 29.5706 14.1102 6.99075 5.05231 0.888672 -0.255019 
25461 9 1.63963 21.1191 8.56579 -0.419449 9.03019 -6.00529 
25417 1 4.459 21.7465 10.9217 -16.863 -19.9195 -17.3677 
24923 5 0.754769 27.5218 10.9484 5.81674 2.10982 -1.71698 
25425 3 1.35108 22.98 8.77836 -10.6593 -8.30076 18.284 
24927 5 0.559259 23.61 11.1153 15.5288 -1.904 8.13322 
25426 5 3.10363 23.8017 10.4009 3.53693 -9.53372 -9.27297 
25420 2 1.64879 23.9265 10.0018 35.9785 98.2788 58.6017 
25401 1 4.97038 25.5329 10.7242 12.6467 4.91548 10.3797 
24924 5 3.18735 27.1766 10.4054 -6.25109 -6.0755 -13.8768 
24922 4 1.38256 25.4386 9.75254 -16.546 10.3784 -16.982 
24919 2 1.7823 26.9563 9.95451 1.57295 144.258 61.3621 
24921 3 1.55556 27.7248 8.56562 -3.2442 -0.960809 8.31963 
25462 9 1.60156 23.3783 7.96981 -0.0552982 0.117547 1.81057 
22871 5 6.64021 23.6959 10.9095 4.80192 -4.7919 -4.69108 
25451 9 2.36751 27.8615 8.13061 0.0524995 0.484066 1.55406 
22375 5 6.78156 27.3777 11.2762 1.86289 -3.77946 -4.47073 
20355 9 13.7553 21.1037 8.67011 -2.59212 21.3135 -0.856867 
22873 3 7.36095 26.8242 8.94079 -1.69006 -2.85276 22.6316 
22910 9 7.83453 27.1872 8.16884 0.0155122 0.30281 5.19873 
22881 7 10.5673 22.2037 7.78641 0.177073 0.151147 -0.586702 
22880 7 12.0072 21.7432 8.22322 12.0986 4.44235 -4.4769 
22869 3 7.56442 24.0265 8.5961 -0.855697 -1.30303 0.715069 
22842 6 11.0399 21.8185 8.50693 -11.6607 -8.58023 2.2367 
22909 9 7.42422 24.9915 8.72358 -0.308387 9.48837 -0.612577 
22870 4 7.80675 21.6814 9.76784 -9.80893 12.9306 -14.6306 
22781 1 10.8959 21.6885 11.0129 -27.479 -19.6311 9.44911 
22868 2 7.76545 27.7412 10.1816 38.4677 98.0715 40.1213 
22867 2 7.78902 23.2324 9.92461 53.7554 190.495 72.5703 
22381 7 12.0152 26.341 8.4485 11.1214 9.17271 -1.34195 
20253 3 13.4682 23.4016 8.82795 -29.5368 -27.7109 6.56174 
22380 7 10.8121 26.2531 7.54966 0.0749084 0.106108 0.0944741 
22342 6 11.2091 25.8188 8.3988 -19.4978 -2.73 29.8358 
20317 3 13.3219 27.8427 9.08682 -10.5992 -13.2151 -9.67983 
20248 2 13.7696 24.0294 10.2263 8.77557 4.84599 112.345 
20318 4 13.624 25.5447 10.0164 -29.4205 -19.3685 -44.9601 
20315 2 13.7788 27.0543 10.3348 51.859 -14.0741 86.4176 
22865 1 10.6865 25.3992 10.9226 12.569 11.3702 25.758 
22872 5 9.17462 23.6871 10.462 5.36236 -15.7088 -13.9616 
22874 5 9.24947 27.6706 10.5948 6.70487 -9.76798 -10.16 
20356 9 12.5954 23.6209 8.49206 10.3296 3.87667 -9.82159 
25431 7 14.1509 26.52 7.83751 1.08811 4.74315 6.61226 
20323 5 12.8525 23.6161 11.429 2.06893 -8.0054 0.936033 
25430 7 14.093 24.9955 7.86813 1.68953 4.72964 10.1682 
25395 6 14.4016 25.7329 7.27378 -0.140513 0.0895048 -0.146308 
20258 7 15.2294 22.3163 8.12146 1.34969 0.129267 -1.44339 
20223 6 16.0015 21.7513 8.2238 -7.33217 -1.25852 9.11115 
20245 1 16.5342 21.695 10.8038 16.4299 20.5306 26.5461 
17698 4 19.4354 21.7483 9.56107 -12.0501 -3.82634 -28.4829 
20320 5 15.2214 27.4242 10.856 4.47062 -11.1128 -15.4152 
20254 5 15.1801 23.5949 10.561 -16.127 -11.708 -20.9327 
20329 7 17.2434 26.6466 8.28058 4.00029 3.22375 -3.68887 
20328 7 16.0419 25.8023 7.61998 1.70584 -0.0116823 -0.111448 
17803 9 18.6355 24.4714 8.19816 9.15256 9.23087 -0.665615 
20290 6 16.6573 25.8385 8.42977 -27.0632 -4.80527 8.60854 
17697 3 19.4666 23.9299 8.24968 -7.45207 -15.5583 7.59181 
17701 3 18.7572 27.5768 9.07536 -11.3615 -29.6001 -3.23912 
17695 2 19.6311 23.298 9.64847 1.71278 5.66706 78.2019 
17696 2 19.6976 27.9701 10.2409 33.3863 101.044 91.1907 
17700 5 20.9899 23.6351 10.1729 -17.478 -7.61381 -19.0363 
17702 5 21.0953 27.3466 10.1236 7.74966 -13.7624 -20.8497 
17699 5 18.7076 23.7838 10.7613 -3.21085 -4.38546 -0.320338 
20229 1 17.0048 25.6018 10.9426 19.1893 15.0252 0.421482 
17708 7 20.0702 22.1005 7.0657 -0.228925 1.4121 0.834124 
17670 6 20.1319 21.2549 6.64674 -0.763582 0.839795 -1.33242 
17707 7 20.7868 25.2363 7.6314 4.67957 4.92992 -0.0703273 
17706 7 21.1787 26.5559 8.43819 0.140796 6.5345 6.87674 
17671 6 21.5933 25.7538 7.94146 -0.385692 -4.87891 5.2983 
17804 9 18.1596 28.2261 8.79174 4.29144 -0.35673 -3.10862 
15302 9 22.12 22.0167 7.2663 -10.7567 2.29469 -0.601233 
15082 7 28.9341 21.4367 6.98265 -0.118865 1.92359 -3.05906 
15309 7 26.1711 21.1856 5.56242 -0.0506098 0.354716 -0.580932 
15297 7 25.7773 22.9358 5.36905 0.0251164 0.422395 0.0398936 
15076 3 22.8653 21.7306 7.945 5.07953 -10.2615 6.62302 
15105 6 25.4296 21.9972 5.7434 2.49852 2.77509 8.74 
15067 1 28.5009 21.8246 10.3102 7.17256 13.7267 27.8759 
17603 1 22.8719 21.8054 10.3091 41.9374 30.9465 64.7614 
15070 8 24.6898 21.8654 7.53391 8.8432 21.9611 -5.02085 
15157 7 24.761 24.7113 6.5409 0.108791 1.45172 -2.25348 
17693 1 22.4585 25.6458 10.3024 35.3226 46.6652 58.1693 
15118 6 24.3516 25.0692 5.80024 0.215507 -0.0181362 -0.0763077 
15156 7 23.4675 25.4068 6.08223 0.348088 0.0665794 -0.0173738 
12750 9 28.7793 27.0604 8.02173 -18.1557 -1.29089 -3.52331 
15145 3 25.8709 28.1424 8.32624 -25.1495 -10.0193 23.9708 
15077 4 25.2347 23.1977 8.50469 -14.912 -21.8122 -12.0919 
15146 4 25.5466 25.6818 9.29943 -7.92466 17.7063 -16.2306 
15143 2 25.8227 27.2278 9.63665 33.9766 58.2702 43.003 
15071 2 25.6377 24.1622 9.58877 42.8792 137.556 71.2283 
15078 5 27.0823 23.775 9.8664 3.47851 -1.61885 -12.4167 
15148 5 27.2019 27.5255 10.2775 11.48 -13.3589 -15.6819 
15051 1 28.9278 25.6837 10.4438 0.695384 13.1505 51.1788 
15147 5 24.7278 27.7419 10.5663 3.69513 -2.3202 -8.08991 
12524 3 29.1596 26.0649 8.01414 -11.2381 -1.34066 8.9352 
15045 6 29.2043 21.7754 7.82857 -18.5073 -11.0408 5.31654 
15251 9 25.5134 27.6474 7.63837 -0.0696237 -0.301929 15.5461 
15151 5 24.6677 23.8201 10.7274 -4.82884 -8.04523 -15.3766 
25272 7 0.56992 4.71057 16.2025 4.95326 -0.45522 2.26768 
25198 5 4.5419 2.55475 12.6561 -17.5729 -9.37113 -11.3198 
25195 5 4.3158 -1.09258 12.7632 -0.890056 -3.85799 3.66081 
25511 9 0.00102684 1.24232 16.1515 -22.5723 3.25912 -2.31394 
22635 1 6.05896 0.692999 12.8525 -10.8509 2.1584 -5.36728 
25268 5 2.06322 2.89899 12.9931 0.867482 -9.16677 -23.5375 
25258 1 0.250924 4.4912 12.7638 7.5198 2.04069 9.17651 
25207 1 0.476342 0.786529 13.0733 15.108 42.5435 26.9565 
25191 2 3.47612 3.03985 13.5769 22.2231 -71.2615 71.713 
25263 4 3.57926 4.53329 13.9916 -21.9272 -10.9419 -22.8451 
25197 4 3.26023 2.0922 14.7531 -10.4568 -24.1225 -8.41348 
25192 4 3.04502 -0.482259 14.848 -6.56235 -17.0724 -8.39246 
25196 3 0.677554 1.08488 15.3931 8.67894 -14.84 9.97588 
25190 8 2.52047 0.895938 15.8121 -18.2375 17.6848 -35.9146 
25240 6 3.31895 0.463078 17.5119 -7.50744 0.0575755 22.0552 
25519 7 3.30531 -0.581064 17.8152 -0.713498 5.58499 -14.4194 
25507 7 2.89153 1.01876 18.3989 4.57165 10.1347 -9.22975 
22649 6 4.6207 5.71983 17.4157 -48.4966 -30.5454 -30.4689 
25308 6 0.0985822 4.81339 15.3439 -18.7876 -0.344226 20.6822 
25270 6 2.26465 4.52287 17.9171 6.28983 -13.574 -4.27241 
25310 7 1.92481 5.14995 18.6526 -6.20456 1.53732 9.05412 
22655 1 6.37544 4.67075 12.8239 -0.516456 6.19614 -2.59577 
25194 5 1.89442 -1.62182 13.1754 0.306362 -13.1915 -19.0767 
25189 2 3.31878 -1.5892 13.8009 43.9018 -25.6244 92.6952 
25309 7 3.2358 4.92017 17.7467 19.6208 3.69353 -5.19203 
22683 6 6.23294 1.10503 15.4413 -8.83169 -1.15056 -0.54877 
22644 3 6.86844 4.76293 15.2203 -0.167143 -13.3338 8.46207 
25472 9 2.24852 3.34135 18.9712 4.50577 30.7281 80.9256 
22651 7 5.34469 1.53806 15.4838 11.059 2.51612 -2.31337 
22650 7 6.37474 0.333932 16.0094 2.91251 3.65935 4.46736 
25236 7 0.406259 0.906389 19.1065 3.47372 7.62941 -0.476353 
22759 7 5.37696 4.16194 18.3066 2.15744 8.73971 2.59258 
22959 9 6.19445 4.97831 15.9891 -17.2875 2.04379 -0.967477 
25237 7 -0.0482162 -0.361763 18.3748 1.0668 2.50172 -3.07437 
20061 7 6.14732 -0.280817 18.1242 13.9024 -0.962794 1.5004 
15136 6 22.4517 27.6399 18.7898 -19.5776 0.540772 11.198 
20023 6 7.05582 -0.124923 17.7365 8.81917 0.516717 -14.3496 
25303 3 -0.450151 7.89695 19.0839 31.4269 -14.5927 19.3357 
20062 7 7.57477 -0.944537 17.9647 2.6798 17.5858 15.3699 
22919 9 7.57708 1.3048 18.7199 0.376894 7.50644 -43.5488 
20022 6 13.3906 -0.615266 17.3019 -28.2597 -27.6567 -19.6887 
20101 7 9.81846 1.63126 15.7286 1.45605 11.6029 21.6487 
22931 9 10.1121 -0.55331 15.634 8.08378 18.5852 80.2489 
22643 5 10.3472 2.57234 12.1955 -2.91897 -4.32239 -8.13291 
20083 1 12.0539 4.57824 12.2941 -10.4458 -8.85527 18.0495 
22642 5 7.78438 2.32799 12.6693 -1.9379 -8.10699 -21.2697 
22572 5 10.3915 -1.19034 12.4814 1.79976 -7.12916 -4.07328 
22647 5 8.01803 -1.15376 13.3887 17.3356 -13.8909 -16.8676 
20029 1 12.4935 0.818447 12.5759 -17.2893 -21.8743 -11.6853 
20095 5 13.8672 2.81253 13.0198 0.133796 -11.872 -14.3347 
22637 2 9.23854 2.21284 13.1776 45.9903 175.435 71.4837 
22565 2 9.47766 -0.798971 13.6553 43.663 46.0461 50.7406 
22641 4 9.6135 0.790931 13.697 -25.156 25.7737 -33.5635 
22640 4 9.10375 3.21619 14.2882 -12.0145 -28.6804 -19.4176 
20060 6 12.4157 1.13375 15.1575 -5.84288 -5.48425 7.92815 
20025 7 11.5253 0.932546 15.5425 12.6115 2.07727 0.303396 
22638 8 8.67135 4.49112 15.3947 -35.0091 5.75407 -22.0343 
20024 7 13.0141 0.595469 15.7635 0.4863 6.35357 4.08849 
22688 6 9.3935 3.93605 17.1409 9.07197 -13.0849 25.9831 
20130 6 9.74728 1.1016 16.5866 1.75301 -9.89866 -0.725904 
20016 5 13.8732 -1.10957 13.0216 5.37123 -15.2277 -18.1294 
20100 7 8.78751 1.25345 16.8291 12.4415 2.86651 0.532765 
22967 7 8.68076 3.48732 17.8149 -0.35507 0.189777 -15.2947 
22571 3 10.1843 -1.32659 14.9783 -9.27401 -10.8327 28.2647 
20064 7 14.1308 -0.744836 17.9231 3.21764 6.69914 9.7246 
20096 6 11.326 0.34734 18.7836 -10.7827 -4.76591 -1.44568 
20135 7 12.1491 -0.164751 18.3235 16.4808 7.02338 1.4294 
20134 7 10.7937 0.64436 17.9968 6.21998 2.1048 3.7122 
20379 9 14.2287 2.03519 15.278 -1.7865 -0.140938 -32.505 
22955 7 10.1385 3.17956 17.0732 -5.94208 -2.31036 -12.809 
20063 7 13.7866 -0.827841 16.4839 2.72036 -0.489521 -13.4899 
15278 9 27.6462 28.5586 16.2611 -2.08697 16.4028 148.474 
20366 9 13.2868 1.84253 19.1004 -7.53299 -1.03196 -2.52358 
17818 9 20.8958 28.6477 18.9623 -3.16821 -2.51955 -56.332 
25377 6 -0.264503 8.12041 15.7271 -38.5997 -18.0908 -9.40813 
20098 7 11.3335 5.53632 18.3959 1.55181 1.12244 -3.69675 
22675 3 7.94233 2.06061 19.2086 -18.4633 -31.0903 8.38614 
25219 7 -0.391917 2.00773 7.99642 9.49799 0.76332 -0.859352 
20378 9 15.4007 0.0444891 14.8487 1.03917 94.1855 31.8743 
20012 2 15.2359 -1.61828 13.5115 8.95014 -78.4545 70.2523 
17469 5 19.9364 -1.30131 13.4326 5.66157 -10.6729 -10.8031 
20017 5 16.2815 -1.21496 12.5395 13.4228 -1.27878 -0.377337 
20020 5 16.2894 2.4578 12.6312 -5.15848 -4.58335 -8.88435 
17477 1 18.4308 4.50707 12.7514 33.9052 29.7955 61.4161 
17458 1 18.218 0.637135 12.871 22.2682 14.0545 11.1826 
17464 5 19.9587 2.61017 13.0923 1.57178 -10.6744 -12.2949 
20014 3 15.3481 -0.927596 14.9324 -28.8761 -11.674 42.2186 
20013 2 15.2355 2.86552 13.6686 -6.59167 -13.4143 60.9134 
20089 4 15.4847 4.41259 13.8828 -11.3586 -9.98564 -19.1271 
17460 2 21.2934 2.30374 13.8302 53.4093 186.813 110.084 
17386 2 21.2555 -0.760946 14.0881 49.4753 198.085 38.2796 
20019 3 15.1447 2.02125 14.9697 -16.8506 -11.6053 -12.9077 
17466 6 17.7486 0.372594 15.3714 -35.6575 -17.5183 9.15075 
17494 7 17.235 -0.454947 15.2311 18.4571 11.832 -8.92608 
17493 7 18.3734 0.0709306 16.0978 12.436 2.43482 2.45601 
17471 6 17.533 2.42683 17.4387 -38.0523 -31.4288 -1.92251 
17510 7 17.4703 2.17855 16.4758 5.65526 3.80217 5.73633 
17509 7 18.4674 2.54645 17.5392 3.56841 -0.00657556 -1.30105 
17463 4 21.2166 0.803669 14.1626 -16.0167 27.8555 -30.2739 
17508 6 18.5149 4.9824 15.3615 -9.49262 -15.8381 19.1671 
14959 7 19.7561 0.241373 18.157 0.284219 2.09338 1.79761 
14960 7 20.0388 1.25793 17.201 -2.17857 -2.75369 3.96761 
17391 3 21.5398 -1.31755 15.5311 -21.0805 -22.3709 48.0361 
17825 9 21.0734 -0.738325 16.1646 4.15951 7.3466 94.4301 
17462 3 21.3016 3.06687 15.2722 -16.4279 -13.2912 45.5077 
14918 6 19.9101 0.319927 17.2296 -3.28059 -22.4473 -23.2177 
17826 9 20.8697 3.93234 15.0517 4.77844 67.9918 16.1848 
17544 6 16.7437 4.50326 18.9997 -25.4695 -21.2707 -5.65052 
17582 7 17.1154 3.98282 18.2792 -1.91516 4.41087 -9.27794 
17457 7 16.9472 1.11024 18.3884 0.10258 8.47769 3.72234 
17503 6 16.5674 0.726643 19.2395 -4.25502 -20.6409 -4.71386 
17583 7 15.9584 4.02733 19.1484 -3.748 2.69562 -5.33272 
17473 7 19.4829 5.22421 15.5311 43.0165 8.98941 -4.31001 
17472 7 18.2362 4.66791 16.1977 0.266748 1.68728 -6.61901 
12441 6 29.2445 19.0042 19.2184 -12.4218 -13.4557 31.202 
14905 7 21.7677 4.73917 18.3006 9.26158 0.890634 -9.63595 
17813 9 20.5706 3.32964 18.9427 1.16346 -2.38049 -28.1704 
17499 3 20.3467 2.39153 18.9403 -15.1545 -31.242 -17.8243 
17504 3 20.1976 5.49219 18.9709 -20.4683 -14.2928 31.2929 
12370 7 29.1582 5.20832 15.6783 -6.07447 -10.3061 -10.3315 
15310 7 26.5964 -0.972566 16.5561 -10.3623 -7.96275 -29.3945 
14904 7 23.0238 4.41026 17.4174 4.67709 2.79491 6.55538 