ITEM: TIMESTEP
420000
ITEM: NUMBER OF ATOMS
25517
ITEM: BOX BOUNDS pp pp ff
-3.8959205201285124e-01 6.0088135642019459e+01
-1.9452389155355383e+00 5.9115524189537531e+01
-1.2206056431032383e+01 1.1390111600702880e+02
ITEM: ATOMS id type x y z v_stressx v_stressy v_stressz 
25292 7 5.89857 3.03966 7.5916 -2.43848 -8.51645 -6.22795 
25293 7 5.98077 1.53035 7.7064 -1.88477 -5.90391 -1.90729 
25252 6 5.35811 2.25094 7.51796 -6.37169 -3.23531 0.230952 
25287 5 0.61597 0.755495 10.7564 7.8412 -1.61267 4.94833 
25283 5 2.94291 4.2301 9.842 11.345 6.8456 -12.7394 
25281 4 1.3887 2.44216 9.07367 -13.5727 2.11507 -16.9821 
25280 4 1.07853 5.00258 8.46007 -12.5726 -8.39612 -6.7244 
25277 2 1.45655 3.94107 9.49571 50.5111 39.2252 78.9958 
25215 5 2.99957 0.588718 9.72621 -14.7539 -10.1925 -12.1508 
25209 2 1.59287 0.935181 9.44522 5.98627 -55.6953 73.7233 
25188 1 4.8243 2.58953 9.97468 5.43149 1.28134 14.6791 
25214 3 0.796635 0.0137284 8.44439 -2.07223 -4.61112 1.76011 
25282 5 0.520916 4.37471 10.6565 -15.1311 -14.3454 -17.7814 
25458 9 1.40812 -0.435335 7.83607 0.0177033 2.07333 1.70371 
25206 1 4.52732 -1.17961 10.115 34.6233 37.7389 20.783 
22660 5 6.52822 0.875659 10.2203 -1.2019 -5.71668 -15.6974 
22735 5 6.623 4.87348 10.5536 2.11849 -9.30673 -14.374 
25505 7 1.83983 5.65447 5.50835 -0.0542146 -0.158257 -0.296538 
22662 3 7.17647 4.29529 8.22411 -12.0978 -23.0591 -18.5693 
22658 3 7.30314 0.346889 7.89736 -14.9735 -15.2467 -11.4299 
22905 9 7.65252 -0.485879 7.46068 0.0210726 -0.414751 -4.49397 
22906 9 7.50322 4.57024 7.35908 -2.73727 4.3178 9.73723 
20115 7 11.1372 2.292 6.49758 0.44604 -0.00598004 -1.16577 
22656 2 7.7059 0.365729 9.40584 22.0385 73.8246 62.0541 
20116 7 12.1136 2.88755 7.40659 19.6297 6.70292 2.41356 
20078 6 11.1398 2.86581 7.23657 -15.9127 -11.6508 2.10054 
20106 3 13.741 4.72985 7.46261 -15.68 -11.0846 42.7607 
22657 2 7.60419 5.1024 9.41016 54.427 -15.9149 22.0907 
20036 3 13.619 0.47741 7.57109 -16.5037 -19.4871 17.0524 
20107 4 13.6664 2.6833 8.8298 -17.9752 -14.2225 -33.5665 
20104 2 13.8784 4.18168 8.97251 31.3796 36.5308 94.3771 
20031 2 13.7132 1.1448 8.96008 62.0647 163.714 12.526 
20108 5 12.6966 4.70757 9.81807 14.5768 11.9572 1.11468 
20112 5 12.4932 0.846951 9.91178 10.9209 -0.516896 7.02074 
22654 1 10.4859 2.78478 9.68506 11.0675 10.1618 11.9022 
22661 5 9.03983 1.11007 9.56315 -7.54005 -6.44159 -16.2939 
22663 5 9.10858 4.7108 9.73761 4.45374 -12.8019 -15.5926 
22563 1 10.886 -1.13469 10.1589 0.316584 -0.481274 -3.48864 
22659 4 7.7627 -1.12896 9.68153 -9.43259 -34.9836 -35.3396 
22629 6 11.3751 -1.065 7.76545 -16.7711 5.06503 2.90145 
22669 7 11.9249 -0.207968 7.44815 1.30208 5.20692 -1.35893 
20352 9 13.8605 1.22514 6.87465 0.718691 12.5302 14.6578 
20189 7 14.2777 3.18994 6.51456 0.294854 13.5289 8.36965 
20353 9 14.543 5.23857 7.22704 7.74487 13.2124 16.727 
20148 6 14.5671 2.45013 5.87332 0.143919 0.0573677 0.0974351 
22740 7 11.2703 5.5881 6.8279 3.28613 1.48617 -1.18883 
22738 7 8.76742 5.41578 5.90114 -0.684702 0.700074 -1.37656 
22701 6 7.85394 5.37142 5.69312 0.479498 -0.328052 7.97547 
22739 7 7.886 4.86164 4.87022 -0.0111265 0.0203926 0.00835451 
22670 7 11.9327 -1.89861 7.72342 1.05668 1.64985 -5.35809 
20188 7 15.4435 2.20345 6.22553 0.817744 -0.136398 0.0814505 
20037 5 15.0057 0.565552 9.66218 -0.912697 -6.95498 -12.9951 
20118 7 17.8719 2.63796 7.70159 5.66771 -0.350355 -2.97025 
20117 7 17.6995 1.17882 7.44002 3.02563 2.54033 -4.75531 
17799 9 19.455 -0.241526 7.33338 0.303452 6.60598 17.8545 
20077 6 17.1284 2.01775 7.60787 -23.2384 2.41838 26.9534 
17484 3 19.536 4.02271 8.03155 -4.22477 -2.54971 -2.25308 
20109 5 15.1822 4.68195 9.53593 -5.7815 -7.40293 -17.8684 
17480 3 19.3808 0.510653 7.95906 -16.5199 -32.0202 10.9872 
17478 2 19.7385 0.13463 9.405 33.6623 34.6839 48.9299 
17479 2 19.7269 4.90401 9.32133 47.0949 113.187 61.253 
17485 5 21.0972 4.45706 9.83859 4.90681 -16.0102 -16.4928 
17483 5 21.125 0.57616 9.92672 5.04589 -9.95668 -13.4981 
17482 5 18.7273 0.612358 10.4453 0.806391 -3.53997 -6.10595 
17560 5 18.5746 4.39351 10.2378 -1.41724 1.41033 -13.2264 
20011 1 16.7883 2.43064 10.1919 49.9952 45.6649 47.9845 
20028 1 16.5417 -1.33752 10.1131 23.3708 17.1351 9.99554 
17481 4 19.613 -1.37684 9.30614 -12.5809 -19.8067 -37.7831 
17800 9 20.2785 3.41394 7.96437 0.313633 -2.90222 -5.50696 
20002 6 16.2002 -1.21507 7.53432 -10.5054 -7.55978 13.4075 
20044 7 15.5857 -0.449442 7.68688 4.36375 8.57861 -2.95594 
20043 7 16.3516 -1.12082 6.60323 0.284659 0.200755 -0.838385 
17377 6 19.8786 -1.6773 6.3322 0.248914 -0.13923 -0.00747794 
17415 7 20.5742 -1.92657 6.98281 2.84087 2.48452 2.01937 
14864 7 23.6314 3.83266 7.75133 5.59804 -4.70347 -1.45018 
14825 6 23.2988 2.969 7.82153 -9.286 -3.81173 1.34732 
14863 7 24.1611 2.53617 7.90018 3.87995 -1.32587 -0.587119 
17476 1 22.5994 2.5974 10.2549 -65.7713 -41.1309 60.1747 
14928 3 25.5679 4.59148 8.20809 -31.3832 -49.8665 -46.0875 
15246 9 24.7065 0.00657495 8.04332 7.98138 10.8021 20.0519 
14856 3 25.5405 0.383335 8.16649 -12.6221 -14.808 10.8025 
14929 4 25.6618 2.47021 9.27814 -17.9057 -35.1492 -33.3864 
14851 2 25.7726 0.935136 9.6021 20.1965 -189.48 74.9691 
14926 2 25.8313 3.99121 9.61155 28.9595 145.76 87.8776 
14857 5 27.172 0.513951 10.0212 -9.76336 -12.0003 -20.8842 
14931 5 27.2703 4.30837 10.1061 -28.4097 -11.5408 -18.0678 
14832 1 28.9014 2.41808 10.4207 13.816 12.4455 30.6273 
14930 5 24.8007 4.37565 10.6576 12.6336 -4.67783 -12.9701 
14934 5 24.7275 0.511689 10.6576 4.64793 -3.86994 -0.266254 
17384 1 22.8636 -1.16741 10.5973 -2.29539 4.20955 -19.4737 
14848 1 28.7231 -1.43222 10.2624 14.976 18.8485 0.626294 
14898 6 29.1786 2.45721 7.88738 -13.6838 -15.2712 6.32693 
15247 9 26.3681 4.66526 7.72718 -1.61673 -1.09516 -15.3204 
14826 6 28.1456 -1.3901 7.71182 1.31422 -3.54962 26.4047 
14861 7 27.5228 -0.59177 7.7367 4.99808 5.86367 -2.22113 
14862 7 28.7608 -1.17174 6.9734 0.155127 0.0384 -0.0630149 
17565 7 23.8543 5.62398 7.62904 12.5507 3.7166 -1.55316 
17491 7 23.3409 -0.830267 7.25909 0.0966736 0.072501 -0.452831 
12347 6 29.4782 5.3719 8.00631 -15.333 -7.28851 4.13423 
14939 7 29.2544 3.33895 7.63004 0.448424 -0.929127 -1.2293 
17492 7 24.1978 -1.77871 8.08715 8.19901 2.48734 -6.11979 
17450 6 23.2929 -1.42611 8.02021 -21.5992 -7.0507 18.8201 
25291 7 5.22591 6.53661 7.32751 1.18052 1.67748 -3.11977 
25290 7 3.82687 6.55555 6.86919 -0.676972 1.67602 -4.39378 
25253 6 4.33607 6.71227 7.63615 -9.70129 -11.761 1.57074 
25517 7 1.84279 7.29014 5.50902 -0.0249377 -0.0562552 -0.555653 
25313 6 1.21101 6.45671 5.78137 5.96932 -5.47929 30.3836 
25362 7 1.19888 10.608 6.31952 -0.0172783 -0.0185365 -0.0176463 
25275 1 4.36027 6.50413 10.1833 4.00001 12.8849 8.90724 
25278 8 0.639374 6.49188 7.63496 52.8571 32.4048 10.1482 
22958 9 3.89074 10.3239 7.2783 -3.48438 1.47747 0.300901 
22732 3 4.70032 10.3548 7.96195 2.39458 -12.5337 13.4131 
25359 5 0.701437 8.49354 11.0939 -9.79053 -10.2965 -16.8795 
25356 5 3.08021 12.146 10.2169 10.017 0.126519 -12.553 
25355 5 0.535314 12.2845 10.6518 -2.53402 -5.36114 -7.46793 
25354 4 1.48185 10.2856 9.54639 -13.6592 13.9854 -26.3625 
25353 3 1.39194 12.6945 8.41831 -14.4053 -8.28911 4.50686 
25351 2 1.63225 11.8296 9.72046 40.6307 48.705 64.4133 
25286 5 2.93236 8.28049 10.0288 -5.74694 -16.3289 -19.4413 
25285 4 0.892127 7.85648 8.74192 -20.5458 -18.9141 -4.97237 
25279 2 1.49492 8.71367 9.83417 15.9325 99.8754 77.5358 
25259 1 4.86194 10.2149 10.3927 8.39223 9.43804 61.0821 
25327 6 1.60703 9.7444 6.34125 2.33317 1.4131 -0.847306 
25363 7 1.38635 9.50649 7.2315 0.537878 2.67983 1.61877 
22807 5 6.5607 12.2849 10.8694 -15.9045 -14.4957 -17.5186 
22730 5 6.65234 8.34528 10.5398 -4.658 -14.6572 -13.4899 
22726 8 6.48614 10.4372 7.49213 -1.79714 17.7585 -25.7309 
22761 6 7.05704 10.8316 5.66761 1.78178 2.51168 6.81856 
22733 4 6.9844 11.7221 8.61372 -10.8817 -12.7369 -2.39453 
15171 7 22.628 27.735 19.0129 6.54905 4.9291 -6.98791 
22728 4 7.23016 9.05362 8.29312 -12.8111 -20.264 -5.74669 
22953 7 7.91026 10.1976 5.3838 -0.0661459 0.100111 -0.652596 
22965 7 7.33207 11.8331 5.45166 -0.0492074 0.141602 -0.276704 
22741 7 11.5 7.01103 7.05421 2.60532 -0.032178 -1.55312 
22700 6 10.8104 6.36788 7.23855 -16.118 -2.12636 18.3921 
22636 1 10.9188 6.69179 9.82281 3.89126 9.09076 12.7241 
22729 4 7.48133 6.61374 9.11192 -11.2111 -8.66789 -27.7419 
22668 7 10.5831 8.59932 7.42923 1.91516 4.34733 -3.11788 
22725 2 7.70374 8.13304 9.39568 26.92 31.726 96.8205 
22727 2 7.53968 12.6129 9.75953 16.6696 133.027 78.301 
22630 6 10.7174 9.56513 7.55044 -8.22536 0.702588 5.12557 
22667 7 11.6785 9.56 7.58776 1.27163 0.738385 -1.29734 
20110 3 13.3722 8.00482 7.87861 -10.9596 -1.09465 -3.76205 
20176 4 13.3404 12.979 8.33811 -6.62869 -6.93351 -4.03504 
20177 4 13.5478 10.5013 8.95979 -6.40081 -0.447239 -16.3919 
20173 2 13.7057 11.9908 9.40771 34.7246 -5.25054 75.9823 
20105 2 13.7244 8.93675 9.12343 -1.8416 6.55758 85.0518 
20178 5 12.5598 12.2564 10.4158 -7.82611 -12.2702 -21.9943 
20183 5 12.8988 8.51128 10.3587 -3.78306 -11.002 -7.25592 
22734 5 8.97942 12.4092 10.1072 -12.4027 -12.5652 -17.0808 
22723 1 10.5486 10.4168 9.97488 -3.16079 4.25577 9.66847 
22731 5 9.11607 8.33188 9.85191 -15.6333 -24.4273 -22.2614 
20354 9 13.8366 7.1662 8.02076 -1.16309 -12.331 -25.4975 
17489 7 15.3685 7.53149 7.27379 -6.20947 -2.27996 -3.8103 
17490 7 16.4114 7.08597 6.51817 -0.224905 0.0333813 -0.313606 
17451 6 15.9423 6.78743 7.29642 -18.7595 -17.1849 17.8437 
17555 4 19.5148 6.40419 9.24816 -10.8977 2.3367 -18.6849 
20102 1 16.4765 6.46221 9.86905 10.8264 0.470073 19.2231 
20179 5 15.0791 12.3713 9.86379 2.65821 3.79868 -11.4077 
20111 5 15.0953 8.51182 9.52882 -26.454 -13.8961 -15.2348 
17802 9 19.4832 11.878 7.51898 -0.109167 -0.0965484 0.169397 
17554 3 19.6317 8.68088 7.9737 -1.8391 -5.31044 6.15017 
17801 9 19.3812 9.57046 8.10065 0.608283 12.1756 6.40339 
17558 3 19.3121 11.5602 8.35726 -4.12295 -2.21898 -0.910658 
17552 2 19.7279 7.97853 9.40881 25.3988 57.7081 61.1561 
17553 2 19.7446 12.5897 9.5152 42.6038 43.5552 68.7564 
17559 5 21.2085 12.1329 9.83297 6.7426 -0.629919 -11.1327 
17557 5 21.1128 8.33065 9.93016 0.877694 -11.5152 -15.6751 
17556 5 18.49 8.44005 10.194 12.4277 -3.70543 -7.66633 
17631 5 18.754 12.2185 10.6826 1.80044 -5.48783 -2.0619 
20084 1 16.8199 10.2664 10.3615 -11.9297 -4.93773 -0.447855 
17566 7 22.7737 6.49197 7.09029 0.0946584 0.0180206 0.0524703 
17525 6 23.2369 6.30614 7.97014 -29.9622 -5.8903 17.0893 
15249 9 26.4199 12.3989 7.50271 0.841999 0.688556 0.251131 
14924 1 28.8784 6.30371 10.2599 24.8248 20.1113 0.180727 
17459 1 22.8153 6.36449 10.4136 -83.55 -67.9554 35.7888 
17550 1 22.6813 10.1773 10.109 18.8667 17.6705 8.45692 
15248 9 25.0074 7.30471 8.25379 6.74043 8.89826 8.75898 
15002 3 25.5553 12.1132 7.86039 -4.79017 -8.82909 8.8446 
14932 3 25.8534 7.69566 8.37038 -4.64338 -4.2176 1.32893 
15003 4 25.6929 10.0578 9.40228 -8.94078 -5.76466 -23.3662 
15000 2 25.8234 11.5586 9.33827 29.0514 103.147 73.434 
14927 2 25.9265 8.52626 9.67582 40.0087 66.1357 73.7189 
15005 5 27.2586 12.0307 9.65026 -1.68793 -12.8518 -17.2353 
14933 5 27.3368 8.19806 10.2714 9.58621 -13.6945 -17.3984 
15004 5 24.794 12.1885 10.2281 1.25466 2.97628 -12.0473 
14907 1 29.0423 10.186 10.3202 23.694 18.6679 22.743 
15008 5 24.7476 8.17989 10.6591 15.66 -0.0607286 -2.20138 
14899 6 29.4402 9.94521 7.67407 -3.2257 0.0576751 5.36605 
17637 7 24.0129 13.1402 7.48134 1.60977 0.648307 -0.185026 
25427 5 0.471403 16.2254 10.9577 5.93312 -3.66424 -3.98669 
25424 5 3.05777 19.7432 10.2643 -15.1762 -6.62106 -10.4723 
25423 5 0.62854 19.9386 10.7649 4.15665 -4.27806 -9.91701 
25422 4 1.53223 17.8586 9.5283 -9.74335 6.9991 -14.7178 
25421 3 1.35286 20.1653 8.46116 -3.22007 -2.59008 -0.0939527 
25419 2 1.68921 19.4163 9.80763 -41.5461 140.65 67.941 
25358 5 3.0433 15.9649 10.3935 6.09888 -1.08787 -11.5032 
25352 2 1.62447 16.359 9.9389 56.9022 2.17473 36.7057 
25333 1 4.76049 17.9652 10.8964 -6.43031 13.3606 -46.667 
25357 3 1.27516 15.4524 8.77037 -12.3401 -17.5138 18.7418 
25460 9 1.6173 15.8283 7.87293 0.0995941 0.361396 4.25299 
25349 1 4.58657 14.1062 10.6957 6.37828 16.3856 -33.6331 
22803 5 6.49129 16.0975 10.8756 1.07705 -0.42989 0.0472095 
22875 5 6.46084 20.071 11.1158 20.0268 7.83286 9.42769 
25459 9 1.48999 13.6574 8.56205 -1.06335 5.04866 -4.31791 
22801 3 7.03055 16.5942 8.55987 -2.14647 -6.92026 4.34198 
2179 7 -0.387305 20.8468 8.22815 14.4104 2.24944 -6.37643 
22805 3 7.32975 19.3599 8.91011 -8.30061 -8.77388 25.9368 
22908 9 7.54595 19.9046 8.12021 0.00505884 0.259365 6.54137 
22774 6 7.84223 14.1301 6.46407 2.06683 1.27095 1.68409 
22907 9 7.21638 17.5067 8.66763 -0.136306 20.268 1.696 
22800 2 7.69826 20.1918 10.1825 71.2849 59.1129 38.8778 
22810 7 9.52718 17.6319 7.67339 -2.03245 0.96043 -1.91862 
22775 6 10.3724 17.5576 8.1234 -18.1688 -9.15652 5.86175 
22811 7 11.0269 17.744 7.42304 6.09735 1.06542 -1.15829 
20249 3 13.6146 20.1923 8.5115 -17.3302 -16.0545 20.1283 
22799 2 7.50164 15.6895 9.76752 1.11705 20.9171 68.9371 
20181 4 13.1648 15.598 8.7498 -9.78241 -32.0435 -11.6024 
20250 4 13.59 17.8559 9.69511 -14.0293 6.52775 -28.1015 
20247 2 13.6446 19.4223 9.89672 3.96594 28.4008 71.4841 
20175 2 13.7411 16.3389 9.95052 45.4484 116.712 88.5395 
20255 5 12.7826 16.0392 11.1348 -2.8547 -11.4441 -16.294 
20251 5 12.5994 19.887 10.8751 -0.667813 0.141241 3.25592 
22797 1 10.5866 17.8329 10.6706 3.26919 -1.57721 14.0857 
22804 5 8.85928 16.0465 10.2629 -4.37903 -11.0851 -13.8466 
22806 5 9.15709 19.6726 10.6518 26.5342 -12.592 -11.5214 
20209 6 12.874 15.0323 5.7533 0.480335 -0.362068 1.51498 
20174 8 12.7095 14.4625 7.54514 27.5142 10.8628 -53.7667 
22802 4 7.35344 14.1712 9.46207 -20.8583 9.46415 -28.0869 
22707 1 10.7485 14.2517 10.2767 12.223 10.6967 3.65385 
20180 3 10.8086 14.0423 7.95232 18.0855 -8.83602 4.69039 
20260 7 13.0324 18.8856 6.99744 0.130459 1.3429 1.25507 
20261 7 12.9162 17.3666 7.33817 -0.524603 10.6557 5.51206 
20401 7 13.4229 15.9899 5.62814 -0.162093 0.31256 -1.28238 
20406 9 10.0189 14.4108 7.4707 -1.2445 2.84386 -2.26629 
20413 7 11.9327 15.1884 5.26927 -0.0685441 -0.0247738 -0.439456 
20222 6 12.7014 18.0477 6.67459 -0.748455 0.70296 -0.950079 
22813 7 7.7456 15.0607 6.62462 -0.072692 -0.0489321 0.0759173 
22812 7 7.44152 13.8113 7.30537 0.719213 1.44489 6.60863 
17861 7 18.0327 18.1656 5.18632 -0.0412872 -0.0256975 -0.195061 
17849 7 19.1146 19.332 5.5722 -0.051639 0.152474 -0.563976 
17657 6 18.7692 18.3451 5.88217 -4.92027 -2.68655 15.0704 
20252 5 14.9691 19.7344 10.5394 -8.29935 -13.2938 -18.6554 
20182 5 15.2166 16.0409 10.213 -4.12774 -20.6758 -14.1784 
17622 8 18.5634 18.0799 7.75046 32.3689 27.9299 -14.4189 
17854 9 15.9449 18.6012 8.0719 -0.311372 2.05957 -3.29536 
17628 3 16.7563 18.0742 8.25458 4.06477 -10.0602 9.65052 
17624 4 19.3217 16.6826 8.46567 -7.74709 -11.4941 -3.48312 
17629 4 18.9827 19.4332 8.85904 -13.6081 -12.3987 1.43412 
17621 2 19.6951 15.6526 9.54627 46.2465 94.6884 82.3419 
17623 2 19.5501 20.2671 10.0023 52.0508 24.9867 75.8942 
17630 5 21.0316 19.7719 10.2793 12.2796 -2.68783 -15.9677 
17627 5 21.1919 15.89 9.96206 0.935308 -17.6587 -17.1105 
20155 1 16.8424 17.9752 10.6946 1.71719 10.7528 -27.4697 
17626 5 18.7672 15.8963 10.7355 -8.46801 -8.88975 -12.4625 
20171 1 16.7158 14.1373 10.3208 4.34007 5.89609 -31.7193 
17625 4 19.606 14.0957 9.12525 -6.05533 7.79957 -11.8671 
17564 7 21.4906 17.2833 7.58657 -0.581704 1.55608 -1.27216 
17703 5 18.6795 20.0258 11.2014 -15.0524 -12.1911 -21.3099 
17709 7 19.905 20.6273 7.34679 2.92486 4.97187 4.35792 
20259 7 15.568 20.8847 8.4035 12.2167 3.5329 -2.35585 
17526 6 22.4132 17.452 7.70597 -7.66328 -6.65436 18.1085 
17563 7 22.8092 16.6576 7.3521 0.271664 0.345346 -1.93829 
17619 1 22.5682 17.9268 10.3236 11.3891 12.9054 -30.1498 
15250 9 25.4259 16.554 7.3496 3.22848 4.17643 70.4135 
15006 3 25.6058 15.7572 7.92658 -17.2214 -12.1974 55.2598 
15072 4 25.3173 20.4252 8.40544 -12.9311 -7.86192 -2.97569 
15073 4 25.9599 17.9542 9.15621 -15.6737 6.02238 -35.3174 
15069 2 25.8295 19.4844 9.52152 46.7087 196.725 68.9922 
15075 5 27.2671 19.8707 9.91392 4.96692 -4.25714 -14.9165 
15001 2 25.8934 16.4473 9.39988 31.1835 21.6812 33.8609 
15007 5 27.2951 15.9854 9.7832 -0.401135 -10.2686 -16.0138 
14980 1 29.1857 17.8209 10.1444 -12.535 -20.3223 15.2552 
15074 5 24.8028 19.6389 10.6176 -5.86312 -5.45854 -19.6595 
15079 5 24.8396 16.1163 10.4638 8.68725 -3.46184 0.238886 
12533 7 25.4571 18.3754 7.23091 -0.369725 4.44465 5.94116 
17532 1 22.9834 14.1035 10.1761 9.59517 12.0241 9.38877 
14998 1 28.6373 13.9834 10.0874 19.9492 24.6919 13.8483 
12492 6 25.1645 17.9196 6.43544 -1.27783 -1.71187 -0.906754 
12532 7 24.2391 17.8074 6.45162 -0.0695682 0.010358 -0.23326 
17636 7 24.2982 14.6547 7.77674 3.14389 -4.70182 -4.47063 
17597 6 27.3956 19.7327 6.47718 -16.3831 -1.06359 1.21051 
17635 7 27.0344 19.9354 7.31032 6.37002 1.20127 -2.45715 
17596 6 23.5563 13.9987 7.66239 -11.4247 -1.57531 4.51205 
14974 6 28.7308 14.0837 7.53935 -5.7357 -10.9792 7.35317 
17634 7 26.9707 18.9124 6.11254 0.289701 0.569828 -0.15506 
15084 7 28.6931 18.2675 6.90767 0.596579 2.76829 -1.54858 
15012 7 28.1952 14.867 7.30744 1.7755 1.80949 -1.73381 
15044 6 29.2899 17.8272 7.55162 -18.4351 -15.2708 14.59 
15011 7 29.5706 14.1102 6.99075 5.0534 0.883424 -0.286621 
25461 9 1.63963 21.1191 8.56579 -0.452229 9.02891 -6.04426 
25417 1 4.459 21.7465 10.9217 -17.1668 -19.9105 -38.2545 
24923 5 0.754769 27.5218 10.9484 5.91667 1.78307 -2.34166 
25425 3 1.35108 22.98 8.77836 -10.4206 -8.22173 18.8141 
24927 5 0.559259 23.61 11.1153 15.4875 -1.61557 8.16829 
25426 5 3.10363 23.8017 10.4009 3.71901 -9.4034 -9.44094 
25420 2 1.64879 23.9265 10.0018 34.9064 97.4546 57.8877 
25401 1 4.97038 25.5329 10.7242 9.95382 4.90952 -16.4698 
24924 5 3.18735 27.1766 10.4054 -6.1719 -6.05216 -13.8925 
24922 4 1.38256 25.4386 9.75254 -16.4348 10.3969 -16.8089 
24919 2 1.7823 26.9563 9.95451 1.32078 144.364 60.7087 
24921 3 1.55556 27.7248 8.56562 -3.25475 -0.948341 8.3771 
25462 9 1.60156 23.3783 7.96981 -0.0556762 0.117263 1.81252 
22871 5 6.64021 23.6959 10.9095 4.75364 -4.65626 -5.21011 
25451 9 2.36751 27.8615 8.13061 0.0538899 0.482456 1.55233 
22375 5 6.78156 27.3777 11.2762 1.95954 -4.15898 -4.56973 
20355 9 13.7553 21.1037 8.67011 -2.67641 21.2897 -1.13699 
22873 3 7.36095 26.8242 8.94079 -1.70687 -2.93735 22.7329 
22910 9 7.83453 27.1872 8.16884 0.0149068 0.301204 5.19525 
22881 7 10.5673 22.2037 7.78641 0.176714 0.148493 -0.597241 
22880 7 12.0072 21.7432 8.22322 12.0832 4.42768 -4.62881 
22869 3 7.56442 24.0265 8.5961 -0.863606 -1.28903 0.725827 
22842 6 11.0399 21.8185 8.50693 -11.6092 -8.57099 2.58235 
22909 9 7.42422 24.9915 8.72358 -0.293431 9.47378 -0.643885 
22870 4 7.80675 21.6814 9.76784 -9.80779 12.9143 -15.034 
22781 1 10.8959 21.6885 11.0129 -24.8649 -18.8995 29.0614 
22868 2 7.76545 27.7412 10.1816 38.2884 98.2965 39.6296 
22867 2 7.78902 23.2324 9.92461 53.9917 189.713 73.5973 
22381 7 12.0152 26.341 8.4485 11.0767 9.1818 -1.4365 
20253 3 13.4682 23.4016 8.82795 -29.1669 -27.5448 7.83878 
22380 7 10.8121 26.2531 7.54966 0.0748789 0.106923 0.0973247 
22342 6 11.2091 25.8188 8.3988 -19.4114 -2.65461 30.143 
20317 3 13.3219 27.8427 9.08682 -10.2612 -13.1814 -8.95885 
20248 2 13.7696 24.0294 10.2263 8.5307 4.30238 112.57 
20318 4 13.624 25.5447 10.0164 -29.051 -18.7309 -44.6793 
20315 2 13.7788 27.0543 10.3348 51.0654 -14.9041 85.9583 
22865 1 10.6865 25.3992 10.9226 12.644 11.1529 28.3442 
22872 5 9.17462 23.6871 10.462 5.33684 -15.5072 -14.2501 
22874 5 9.24947 27.6706 10.5948 6.51895 -9.76642 -10.2244 
20356 9 12.5954 23.6209 8.49206 10.2644 3.82526 -10.0863 
25431 7 14.1509 26.52 7.83751 1.0699 4.74612 6.68624 
20323 5 12.8525 23.6161 11.429 2.06372 -8.39719 0.250567 
25430 7 14.093 24.9955 7.86813 1.66949 4.70609 10.1665 
25395 6 14.4016 25.7329 7.27378 -0.138813 0.0901621 -0.153476 
20258 7 15.2294 22.3163 8.12146 1.35369 0.118823 -1.48442 
20223 6 16.0015 21.7513 8.2238 -7.35242 -1.22559 9.08931 
20245 1 16.5342 21.695 10.8038 16.1536 20.5375 43.1872 
17698 4 19.4354 21.7483 9.56107 -11.7587 -3.85486 -28.3407 
20320 5 15.2214 27.4242 10.856 4.4753 -11.1205 -15.0661 
20254 5 15.1801 23.5949 10.561 -16.212 -11.797 -20.8791 
20329 7 17.2434 26.6466 8.28058 4.01054 3.21035 -3.60705 
20328 7 16.0419 25.8023 7.61998 1.7019 -0.0162871 -0.0983453 
17803 9 18.6355 24.4714 8.19816 9.14181 9.20335 -0.601462 
20290 6 16.6573 25.8385 8.42977 -27.1953 -4.68441 8.29273 
17697 3 19.4666 23.9299 8.24968 -7.26303 -15.3472 7.27342 
17701 3 18.7572 27.5768 9.07536 -11.4217 -29.686 -3.48435 
17695 2 19.6311 23.298 9.64847 0.561458 4.99409 76.6372 
17696 2 19.6976 27.9701 10.2409 33.4736 100.597 90.8531 
17700 5 20.9899 23.6351 10.1729 -17.4098 -7.68813 -19.2776 
17702 5 21.0953 27.3466 10.1236 7.99025 -13.4338 -20.4664 
17699 5 18.7076 23.7838 10.7613 -2.90918 -4.36154 -2.1976 
20229 1 17.0048 25.6018 10.9426 18.6524 15.0694 -19.7641 
17708 7 20.0702 22.1005 7.0657 -0.236876 1.39791 0.808867 
17670 6 20.1319 21.2549 6.64674 -0.754106 0.850346 -1.28299 
17707 7 20.7868 25.2363 7.6314 4.6788 4.91296 -0.0354489 
17706 7 21.1787 26.5559 8.43819 0.136616 6.51827 6.87257 
17671 6 21.5933 25.7538 7.94146 -0.413701 -4.78197 5.20249 
17804 9 18.1596 28.2261 8.79174 4.31111 -0.326676 -2.99341 
15302 9 22.12 22.0167 7.2663 -10.7749 2.28981 -0.697785 
15082 7 28.9341 21.4367 6.98265 -0.127917 1.92053 -3.0981 
15309 7 26.1711 21.1856 5.56242 -0.0509437 0.35407 -0.583289 
15297 7 25.7773 22.9358 5.36905 0.0248788 0.422044 0.039307 
15076 3 22.8653 21.7306 7.945 5.15524 -10.2893 6.87539 
15105 6 25.4296 21.9972 5.7434 2.5102 2.79669 8.80206 
15067 1 28.5009 21.8246 10.3102 7.1218 13.6186 35.3405 
17603 1 22.8719 21.8054 10.3091 42.2642 30.935 67.4029 
15070 8 24.6898 21.8654 7.53391 8.65381 22.1121 -5.50805 
15157 7 24.761 24.7113 6.5409 0.0965532 1.42698 -2.26583 
17693 1 22.4585 25.6458 10.3024 35.5056 46.9723 63.6811 
15118 6 24.3516 25.0692 5.80024 0.216039 -0.0167321 -0.0807523 
15156 7 23.4675 25.4068 6.08223 0.347973 0.0658669 -0.0151587 
12750 9 28.7793 27.0604 8.02173 -18.1376 -1.31034 -3.55029 
15145 3 25.8709 28.1424 8.32624 -25.006 -9.99122 24.3366 
15077 4 25.2347 23.1977 8.50469 -14.7959 -21.9196 -11.87 
15146 4 25.5466 25.6818 9.29943 -7.69637 17.8546 -15.4368 
15143 2 25.8227 27.2278 9.63665 33.4373 57.5029 40.9097 
15071 2 25.6377 24.1622 9.58877 42.1678 137.445 71.5817 
15078 5 27.0823 23.775 9.8664 3.38947 -1.53346 -12.6153 
15148 5 27.2019 27.5255 10.2775 11.3718 -13.3208 -15.6356 
15051 1 28.9278 25.6837 10.4438 0.112831 12.9842 33.2702 
15147 5 24.7278 27.7419 10.5663 3.87517 -1.97727 -8.00413 
12524 3 29.1596 26.0649 8.01414 -11.301 -1.24345 8.96417 
15045 6 29.2043 21.7754 7.82857 -18.4886 -11.0749 5.18124 
15251 9 25.5134 27.6474 7.63837 -0.0786188 -0.300918 15.5399 
15151 5 24.6677 23.8201 10.7274 -4.92818 -8.08436 -16.8386 
25272 7 0.640264 4.54388 16.0726 -0.983543 -0.721165 2.16712 
25198 5 4.5419 2.55475 12.6561 -17.3759 -10.7303 -8.9399 
25195 5 4.3158 -1.09258 12.7632 -0.678133 -2.9232 2.49411 
25511 9 -0.023368 1.44498 16.1596 -6.386 4.67668 1.64268 
22635 1 6.05896 0.692999 12.8525 -4.40621 5.67671 -8.73318 
25268 5 2.06322 2.89899 12.9931 0.70362 -11.0423 -21.375 
25258 1 0.250924 4.4912 12.7638 13.653 6.21004 -0.937624 
25207 1 0.476342 0.786529 13.0733 11.4943 36.712 24.1195 
25191 2 3.47612 3.03985 13.5769 13.1406 115.275 54.273 
25263 4 3.57926 4.53329 13.9916 -27.2301 6.30561 -33.7389 
25197 4 3.26023 2.0922 14.7531 -6.42199 -26.8654 -7.13059 
25192 4 3.04502 -0.482259 14.848 -9.4804 -10.075 -4.26854 
25196 3 0.590052 0.940276 15.4107 17.9412 -12.145 15.3308 
25190 8 2.43752 0.880523 15.7904 18.6952 31.8238 4.59131 
25240 6 2.76432 0.796043 17.6635 -2.86542 -8.86328 14.6011 
25519 7 3.01277 -0.167799 18.1568 0.875627 15.1378 11.4676 
25507 7 2.98605 1.53312 18.3528 -1.17223 0.893296 -12.7083 
25308 6 0.12885 4.67454 15.2766 -29.1257 -3.88434 -1.78288 
25270 6 1.65501 4.57286 17.9974 -27.3012 6.95777 1.5987 
25310 7 2.01182 5.29475 18.5698 -0.57391 16.8176 4.84571 
22655 1 6.37544 4.67075 12.8239 0.192238 8.77666 -9.7636 
25194 5 1.89442 -1.62182 13.1754 -1.24489 -12.6889 -21.0262 
25189 2 3.31878 -1.5892 13.8009 47.4675 180.586 98.6151 
25309 7 2.34753 4.32819 17.3528 11.4453 -5.70812 -3.01245 
22683 6 5.91481 0.825678 15.4044 -17.0176 -11.5473 -1.42749 
22644 3 6.83443 4.39422 15.0357 3.58221 -15.7984 -0.077404 
25472 9 2.33343 3.3333 19.2799 7.22681 22.5131 35.5533 
22651 7 5.16613 1.47393 15.3908 9.28504 3.79653 -5.40684 
22650 7 6.32058 1.04205 16.2524 -0.673704 1.7876 1.80139 
22759 7 5.05197 4.23393 18.6245 4.60824 -0.499794 0.247029 
22959 9 6.14381 4.08538 15.7066 -22.8461 2.34843 -3.57362 
22649 6 3.96405 4.14302 16.7597 -8.90333 28.4738 -8.84774 
22684 7 3.9274 3.39161 16.0809 1.47615 22.0329 14.5642 
22685 7 3.89748 4.96956 16.1445 -2.33792 17.798 16.4708 
20062 7 6.24366 2.58687 18.1006 -1.5811 -1.36923 -1.39737 
22687 7 5.91619 0.525976 18.9543 5.97367 12.6658 5.37645 
20023 6 6.71593 1.78304 18.0382 -14.4556 -14.1539 -15.3057 
25237 7 0.731181 0.961112 18.4774 10.3485 3.4455 -0.990993 
24950 7 0.915259 22.6736 19.2239 17.6143 2.86316 1.12703 
25201 6 0.0579085 0.794951 19.1782 -10.0075 -4.06565 5.62721 
20061 7 7.5343 2.0067 18.545 9.78565 1.90208 7.44059 
20022 6 13.4965 -0.987626 17.0562 -19.8129 -3.50878 0.592817 
20101 7 8.12174 0.392112 17.3636 9.35534 1.48483 -0.166223 
22931 9 9.62127 -0.759865 15.7796 -0.880848 4.13731 93.5742 
22643 5 10.3472 2.57234 12.1955 -1.57526 -3.67295 -9.18194 
20083 1 12.0539 4.57824 12.2941 24.7881 14.8319 23.7271 
22642 5 7.78438 2.32799 12.6693 -1.14435 -7.66545 -19.8851 
22572 5 10.3915 -1.19034 12.4814 1.74358 -7.10299 -2.9614 
22647 5 8.01803 -1.15376 13.3887 11.2004 -13.7578 -21.8837 
20029 1 12.4935 0.818447 12.5759 13.9194 22.2701 0.814406 
20095 5 13.8672 2.81253 13.0198 -9.22416 -9.39733 -12.1757 
22637 2 9.23854 2.21284 13.1776 42.553 159.016 74.8818 
22565 2 9.47766 -0.798971 13.6553 32.5591 35.0584 29.9437 
22641 4 9.6135 0.790931 13.697 -21.9912 21.9925 -29.2073 
22640 4 9.10375 3.21619 14.2882 -10.6078 -15.2639 -6.71759 
20060 6 12.1362 0.769701 15.2225 -17.6601 -10.5298 13.7525 
20025 7 11.3299 0.335647 15.0034 -1.0593 1.04716 -7.27281 
22638 8 8.67657 4.53559 15.4156 -4.86901 17.4992 -15.3683 
20024 7 12.4975 0.210523 15.9122 1.51677 4.80425 -5.51337 
22688 6 9.49516 4.47925 17.1928 4.9034 2.8977 19.5261 
20130 6 9.01704 -0.0118192 17.2085 12.5581 -4.24277 -18.8529 
20016 5 13.8732 -1.10957 13.0216 5.61726 -14.2235 -19.0622 
20100 7 9.12179 -0.697391 17.8499 -5.68157 -0.210781 6.55346 
22967 7 9.20922 5.21896 17.8925 -4.24296 3.3146 -14.1325 
22571 3 9.92383 -1.30936 15.0069 -26.9925 -35.8947 9.5746 
20135 7 12.2805 0.0562194 18.2318 9.80304 5.71991 5.66286 
20134 7 10.7504 0.252792 18.4857 6.26867 2.15535 -1.44228 
22955 7 9.23691 3.49253 17.649 -1.79873 5.00253 -13.4705 
20098 7 11.1659 4.75069 18.7952 3.42193 1.88554 1.97553 
20096 6 11.6165 0.455615 18.892 -6.43488 -6.82403 8.78881 
20379 9 14.6508 2.06065 15.5437 6.53861 3.57927 7.14384 
20064 7 14.2885 -0.761039 16.5166 6.1475 0.598816 10.5965 
20063 7 13.8234 -1.38251 17.914 0.411262 1.84146 5.94119 
20366 9 14.5456 2.35999 19.2082 -2.00526 5.98092 32.0283 
20099 7 12.5834 4.46889 18.9877 -0.270286 0.493203 -0.442489 
22652 7 7.6319 -1.85738 15.7444 -9.34261 1.01343 -4.54728 
17474 7 17.4874 -1.72729 15.4499 7.7677 0.384023 -5.35803 
20378 9 15.4007 0.0444891 14.8487 -0.0416077 107.928 30.9463 
20012 2 15.2359 -1.61828 13.5115 11.7946 34.81 81.0985 
17469 5 19.9364 -1.30131 13.4326 -15.9557 -12.1795 -14.8879 
20017 5 16.2815 -1.21496 12.5395 12.3718 -1.32258 -0.580928 
20020 5 16.2894 2.4578 12.6312 -3.9678 -4.5549 -12.2737 
17477 1 18.4308 4.50707 12.7514 48.99 42.9983 68.4464 
17458 1 18.218 0.637135 12.871 57.7447 44.8456 14.2219 
17464 5 19.9587 2.61017 13.0923 -9.22163 -12.2548 -14.9216 
20014 3 15.3481 -0.927596 14.9324 -25.3942 -7.31008 36.645 
20013 2 15.2355 2.86552 13.6686 32.761 -29.3619 60.4457 
20089 4 15.4847 4.41259 13.8828 -10.9578 1.91325 -18.1915 
17460 2 21.2934 2.30374 13.8302 69.4861 -34.8521 81.3555 
17386 2 21.2555 -0.760946 14.0881 55.8348 87.7936 14.564 
20019 3 15.4542 2.02019 14.9399 -9.17314 -16.0117 8.94249 
17466 6 17.8671 0.498073 15.4134 -10.8617 -21.5595 12.1346 
17494 7 16.886 0.636056 15.611 17.6384 14.8138 -3.38512 
17493 7 18.3228 1.11223 16.0444 2.35561 10.331 0.491283 
17471 6 19.0389 2.35214 17.2321 9.48004 -4.4814 -0.481585 
17510 7 20.0245 2.18896 17.2343 9.91726 3.11605 0.987165 
17509 7 18.8498 1.73257 17.98 3.01443 4.86299 3.14464 
17463 4 21.2166 0.803669 14.1626 -13.2982 -22.222 -25.5427 
17508 6 18.582 4.74982 15.4725 -8.35162 -1.98621 30.2473 
14959 7 21.5895 1.34054 18.0734 0.010434 8.35612 10.0357 
14960 7 21.7387 1.46061 16.5276 -1.41898 12.1432 7.63529 
17391 3 21.6622 -1.40583 15.4409 -20.8265 -35.8596 -4.35967 
17825 9 21.5804 -0.722745 16.1209 -1.90717 -0.577017 -92.3591 
17462 3 21.5273 3.06359 15.1501 -18.7323 -29.8285 0.407465 
14918 6 21.9678 0.826823 17.2756 -26.8787 2.44345 1.32087 
17826 9 20.8983 3.83989 15.1721 3.48387 8.69769 -14.7329 
17582 7 18.4111 3.8163 18.2128 2.0558 10.9709 4.74809 
17472 7 19.3125 5.38815 15.4008 12.2822 1.40622 -4.64163 
17473 7 18.826 4.1979 16.2628 2.57051 9.1355 0.428209 
17544 6 18.241 4.40547 18.9962 -7.2766 -7.64176 8.22981 
17583 7 18.9904 5.10503 18.9902 23.1034 10.3073 -4.12461 
17813 9 20.4206 3.41823 19.2953 -3.23097 11.1554 -16.5963 
17827 9 22.1237 5.3256 15.2996 11.8557 22.9824 8.85606 
17457 7 16.7427 -0.377912 19.2653 6.88538 2.74974 -2.51331 
17456 7 16.471 1.13086 19.2549 11.435 8.62672 -1.71692 
15272 9 28.254 -1.84813 15.7591 14.2902 -1.27069 76.8687 
14905 7 22.5722 3.65697 18.7685 1.21651 2.1936 -3.56538 
14951 6 23.2066 4.36074 18.8883 -31.4553 -21.5144 -1.04633 
15310 7 26.8455 -1.03675 16.9487 -5.77503 -4.01418 -10.366 
14904 7 23.9857 3.96673 18.4832 1.74836 2.64292 -2.60643 
12752 9 29.5486 4.14596 18.6674 -10.2964 1.19441 -0.711911 