ITEM: TIMESTEP
510000
ITEM: NUMBER OF ATOMS
25517
ITEM: BOX BOUNDS pp pp ff
-3.8959205201285124e-01 6.0088135642019459e+01
-1.9452389155355383e+00 5.9115524189537531e+01
-1.2206056431032383e+01 1.1390111600702880e+02
ITEM: ATOMS id type x y z v_stressx v_stressy v_stressz 
25292 7 5.89857 3.03966 7.5916 -2.48746 -8.51371 -6.27995 
25293 7 5.98077 1.53035 7.7064 -1.90495 -5.92802 -1.99014 
25252 6 5.35811 2.25094 7.51796 -6.31572 -3.23309 0.250336 
25287 5 0.61597 0.755495 10.7564 7.78621 -1.58285 3.01378 
25283 5 2.94291 4.2301 9.842 11.1286 6.52202 -12.4872 
25281 4 1.3887 2.44216 9.07367 -12.8473 1.937 -15.8498 
25280 4 1.07853 5.00258 8.46007 -12.823 -8.51547 -6.58404 
25277 2 1.45655 3.94107 9.49571 51.5823 35.5262 77.3475 
25215 5 2.99957 0.588718 9.72621 -14.3768 -10.0387 -11.8499 
25209 2 1.59287 0.935181 9.44522 8.57201 -58.7765 72.092 
25188 1 4.8243 2.58953 9.97468 5.10249 1.3063 14.1312 
25214 3 0.796635 0.0137284 8.44439 -1.98042 -4.54288 2.40142 
25282 5 0.520916 4.37471 10.6565 -15.3874 -14.5783 -17.506 
25458 9 1.40812 -0.435335 7.83607 0.0193958 2.11744 1.74794 
25206 1 4.52732 -1.17961 10.115 35.0072 37.9367 21.015 
22660 5 6.52822 0.875659 10.2203 -1.35778 -5.80865 -16.0454 
22735 5 6.623 4.87348 10.5536 2.49015 -9.12502 -14.5635 
25505 7 1.83983 5.65447 5.50835 -0.0568074 -0.164297 -0.297702 
22662 3 7.17647 4.29529 8.22411 -12.1277 -23.2255 -18.3639 
22658 3 7.30314 0.346889 7.89736 -15.0022 -15.1184 -11.0874 
22905 9 7.65252 -0.485879 7.46068 0.0225057 -0.415658 -4.48953 
22906 9 7.50322 4.57024 7.35908 -2.74173 4.33946 9.64755 
20115 7 11.1372 2.292 6.49758 0.444088 -0.0100206 -1.15749 
22656 2 7.7059 0.365729 9.40584 21.8314 73.6875 61.5178 
20116 7 12.1136 2.88755 7.40659 19.6531 6.66833 2.5609 
20078 6 11.1398 2.86581 7.23657 -15.8722 -11.5534 2.02941 
20106 3 13.741 4.72985 7.46261 -15.7889 -10.9355 42.1144 
22657 2 7.60419 5.1024 9.41016 54.1916 -16.0162 21.7654 
20036 3 13.619 0.47741 7.57109 -16.4598 -19.4655 16.8923 
20107 4 13.6664 2.6833 8.8298 -17.9863 -14.0195 -33.7901 
20104 2 13.8784 4.18168 8.97251 31.2971 36.1959 93.2345 
20031 2 13.7132 1.1448 8.96008 62.6109 164.055 14.4128 
20108 5 12.6966 4.70757 9.81807 15.028 11.9901 2.02201 
20112 5 12.4932 0.846951 9.91178 10.8845 -0.586429 5.4017 
22654 1 10.4859 2.78478 9.68506 11.4021 10.1667 11.0595 
22661 5 9.03983 1.11007 9.56315 -7.46157 -6.48082 -16.161 
22663 5 9.10858 4.7108 9.73761 4.21514 -12.8122 -15.3402 
22563 1 10.886 -1.13469 10.1589 -0.419896 -0.466475 -17.2067 
22659 4 7.7627 -1.12896 9.68153 -9.2694 -34.7605 -35.0596 
22629 6 11.3751 -1.065 7.76545 -16.7398 5.07083 2.79905 
22669 7 11.9249 -0.207968 7.44815 1.29754 5.20161 -1.34892 
20352 9 13.8605 1.22514 6.87465 0.708205 12.5211 14.7002 
20189 7 14.2777 3.18994 6.51456 0.282846 13.5048 8.46869 
20353 9 14.543 5.23857 7.22704 7.7472 13.1847 16.8858 
20148 6 14.5671 2.45013 5.87332 0.144702 0.0579114 0.0949432 
22740 7 11.2703 5.5881 6.8279 3.27806 1.4863 -1.15042 
22738 7 8.76742 5.41578 5.90114 -0.694884 0.700287 -1.3527 
22701 6 7.85394 5.37142 5.69312 0.498511 -0.311693 7.90305 
22739 7 7.886 4.86164 4.87022 -0.0111974 0.0202543 0.00864261 
22670 7 11.9327 -1.89861 7.72342 1.04113 1.64089 -5.30618 
20188 7 15.4435 2.20345 6.22553 0.81281 -0.138693 0.090801 
20037 5 15.0057 0.565552 9.66218 -0.94803 -6.96331 -13.1789 
20118 7 17.8719 2.63796 7.70159 5.66668 -0.340056 -2.82593 
20117 7 17.6995 1.17882 7.44002 3.02259 2.54813 -4.52671 
17799 9 19.455 -0.241526 7.33338 0.295736 6.5974 18.0041 
20077 6 17.1284 2.01775 7.60787 -23.2705 2.39653 25.9548 
17484 3 19.536 4.02271 8.03155 -4.15729 -2.54412 -2.28885 
20109 5 15.1822 4.68195 9.53593 -5.81323 -7.41867 -17.0003 
17480 3 19.3808 0.510653 7.95906 -16.3831 -32.0533 10.4539 
17478 2 19.7385 0.13463 9.405 32.7379 34.127 47.6495 
17479 2 19.7269 4.90401 9.32133 45.7963 113.475 58.3866 
17485 5 21.0972 4.45706 9.83859 4.84392 -16.0839 -16.3411 
17483 5 21.125 0.57616 9.92672 5.07066 -9.84215 -13.145 
17482 5 18.7273 0.612358 10.4453 0.88643 -3.3304 -5.09043 
17560 5 18.5746 4.39351 10.2378 -1.11106 1.42542 -10.8766 
20011 1 16.7883 2.43064 10.1919 49.7452 45.5779 39.5847 
20028 1 16.5417 -1.33752 10.1131 23.401 17.3052 9.83005 
17481 4 19.613 -1.37684 9.30614 -12.3648 -19.9017 -37.6582 
17800 9 20.2785 3.41394 7.96437 0.291142 -2.90277 -5.4833 
20002 6 16.2002 -1.21507 7.53432 -10.4835 -7.48825 13.2678 
20044 7 15.5857 -0.449442 7.68688 4.35547 8.55337 -2.76552 
20043 7 16.3516 -1.12082 6.60323 0.283479 0.197841 -0.83581 
17377 6 19.8786 -1.6773 6.3322 0.249233 -0.137201 -0.00822478 
17415 7 20.5742 -1.92657 6.98281 2.83195 2.46222 2.0818 
14864 7 23.6314 3.83266 7.75133 5.60009 -4.70412 -1.41114 
14825 6 23.2988 2.969 7.82153 -9.3054 -3.78949 1.32296 
14863 7 24.1611 2.53617 7.90018 3.8845 -1.33148 -0.510358 
17476 1 22.5994 2.5974 10.2549 -65.2872 -41.0103 47.2969 
14928 3 25.5679 4.59148 8.20809 -31.192 -49.6724 -46.9479 
15246 9 24.7065 0.00657495 8.04332 7.99932 10.8131 20.1831 
14856 3 25.5405 0.383335 8.16649 -12.6244 -14.8465 10.5339 
14929 4 25.6618 2.47021 9.27814 -17.6441 -35.0245 -33.8355 
14851 2 25.7726 0.935136 9.6021 19.7348 -188.854 77.3092 
14926 2 25.8313 3.99121 9.61155 27.7996 144.58 87.448 
14857 5 27.172 0.513951 10.0212 -9.77429 -12.0842 -21.3498 
14931 5 27.2703 4.30837 10.1061 -28.2379 -11.3585 -17.6471 
14832 1 28.9014 2.41808 10.4207 13.8172 11.9326 31.8556 
14930 5 24.8007 4.37565 10.6576 12.7099 -4.41429 -12.6689 
14934 5 24.7275 0.511689 10.6576 4.60052 -4.0826 -1.18683 
17384 1 22.8636 -1.16741 10.5973 -1.05124 4.07848 -5.69324 
14848 1 28.7231 -1.43222 10.2624 14.9402 18.9094 -3.8694 
14898 6 29.1786 2.45721 7.88738 -13.664 -15.3732 6.03409 
15247 9 26.3681 4.66526 7.72718 -1.61999 -1.0971 -15.3048 
14826 6 28.1456 -1.3901 7.71182 1.41612 -3.47612 26.6351 
14861 7 27.5228 -0.59177 7.7367 4.97881 5.86513 -2.22421 
14862 7 28.7608 -1.17174 6.9734 0.154994 0.0380635 -0.0631646 
17565 7 23.8543 5.62398 7.62904 12.5537 3.71755 -1.5417 
17491 7 23.3409 -0.830267 7.25909 0.0950387 0.0703343 -0.455055 
12347 6 29.4782 5.3719 8.00631 -15.2567 -7.09561 4.16485 
14939 7 29.2544 3.33895 7.63004 0.444361 -0.923009 -1.21033 
17492 7 24.1978 -1.77871 8.08715 8.21424 2.45203 -6.13581 
17450 6 23.2929 -1.42611 8.02021 -21.5427 -6.94264 18.9654 
25291 7 5.22591 6.53661 7.32751 1.1779 1.64852 -3.12824 
25290 7 3.82687 6.55555 6.86919 -0.69983 1.63733 -4.40799 
25253 6 4.33607 6.71227 7.63615 -9.60156 -11.518 1.9218 
25517 7 1.84279 7.29014 5.50902 -0.0267298 -0.0626444 -0.552461 
25313 6 1.21101 6.45671 5.78137 6.05772 -5.00924 30.2719 
25362 7 1.19888 10.608 6.31952 -0.0180135 -0.0153582 -0.0232063 
25275 1 4.36027 6.50413 10.1833 3.90552 12.8021 -1.91556 
25278 8 0.639374 6.49188 7.63496 52.8136 31.4755 9.72314 
22958 9 3.89074 10.3239 7.2783 -3.49082 1.48487 0.227724 
22732 3 4.70032 10.3548 7.96195 2.42113 -12.5515 13.7053 
25359 5 0.701437 8.49354 11.0939 -9.7878 -10.5051 -17.1401 
25356 5 3.08021 12.146 10.2169 9.85214 0.136728 -13.2346 
25355 5 0.535314 12.2845 10.6518 -2.40604 -5.34859 -8.52956 
25354 4 1.48185 10.2856 9.54639 -13.6725 13.7565 -27.2641 
25353 3 1.39194 12.6945 8.41831 -15.0309 -8.69962 4.09227 
25351 2 1.63225 11.8296 9.72046 40.2433 48.8013 67.7865 
25286 5 2.93236 8.28049 10.0288 -5.77933 -16.1155 -19.0101 
25285 4 0.892127 7.85648 8.74192 -20.5157 -18.4286 -4.35791 
25279 2 1.49492 8.71367 9.83417 16.4498 99.1216 78.3009 
25259 1 4.86194 10.2149 10.3927 8.33831 9.61465 63.8818 
25327 6 1.60703 9.7444 6.34125 2.35676 1.41517 -0.773347 
25363 7 1.38635 9.50649 7.2315 0.480575 2.62723 1.29836 
22807 5 6.5607 12.2849 10.8694 -15.5101 -14.5273 -17.4432 
22730 5 6.65234 8.34528 10.5398 -4.23071 -14.3469 -12.8881 
22726 8 6.48614 10.4372 7.49213 -1.67395 17.7694 -26.0649 
22761 6 7.05704 10.8316 5.66761 1.77193 2.52422 6.82279 
22733 4 6.9844 11.7221 8.61372 -10.8351 -12.6627 -2.20542 
15169 6 24.4282 23.7786 15.5066 -45.7332 -14.3332 10.8608 
22728 4 7.23016 9.05362 8.29312 -12.8104 -20.2695 -5.70252 
22953 7 7.91026 10.1976 5.3838 -0.0662211 0.0998782 -0.651889 
22965 7 7.33207 11.8331 5.45166 -0.0489421 0.141287 -0.276679 
22741 7 11.5 7.01103 7.05421 2.599 -0.0285829 -1.53248 
22700 6 10.8104 6.36788 7.23855 -16.0092 -2.18605 18.4394 
22636 1 10.9188 6.69179 9.82281 4.79868 9.50934 11.8518 
22729 4 7.48133 6.61374 9.11192 -11.1343 -8.47163 -27.6107 
22668 7 10.5831 8.59932 7.42923 1.8831 4.35818 -3.1752 
22725 2 7.70374 8.13304 9.39568 26.7845 31.3858 97.212 
22727 2 7.53968 12.6129 9.75953 16.3462 132.798 78.9454 
22630 6 10.7174 9.56513 7.55044 -8.15624 0.716499 5.30841 
22667 7 11.6785 9.56 7.58776 1.26749 0.734973 -1.30455 
20110 3 13.3722 8.00482 7.87861 -11.0009 -1.14336 -4.03178 
20176 4 13.3404 12.979 8.33811 -6.61327 -6.94971 -4.07887 
20177 4 13.5478 10.5013 8.95979 -6.29307 -0.27529 -16.2497 
20173 2 13.7057 11.9908 9.40771 33.6011 -4.78601 75.9923 
20105 2 13.7244 8.93675 9.12343 -2.13325 6.5207 85.3835 
20178 5 12.5598 12.2564 10.4158 -7.75125 -12.5736 -22.3645 
20183 5 12.8988 8.51128 10.3587 -3.14143 -10.6607 -7.31001 
22734 5 8.97942 12.4092 10.1072 -12.3096 -12.6247 -17.3262 
22723 1 10.5486 10.4168 9.97488 -2.80239 4.0684 9.46748 
22731 5 9.11607 8.33188 9.85191 -15.7802 -24.2684 -22.1169 
20354 9 13.8366 7.1662 8.02076 -1.15775 -12.3168 -25.4205 
17489 7 15.3685 7.53149 7.27379 -6.22054 -2.28653 -3.7542 
17490 7 16.4114 7.08597 6.51817 -0.225986 0.0327673 -0.308596 
17451 6 15.9423 6.78743 7.29642 -18.6631 -17.1171 17.4687 
17555 4 19.5148 6.40419 9.24816 -10.5948 2.37027 -18.1132 
20102 1 16.4765 6.46221 9.86905 11.1452 0.514979 18.06 
20179 5 15.0791 12.3713 9.86379 2.75289 3.64462 -11.5033 
20111 5 15.0953 8.51182 9.52882 -26.1999 -13.791 -14.4686 
17802 9 19.4832 11.878 7.51898 -0.109712 -0.0993447 0.169453 
17554 3 19.6317 8.68088 7.9737 -1.84331 -5.28515 6.16951 
17801 9 19.3812 9.57046 8.10065 0.607411 12.14 6.3416 
17558 3 19.3121 11.5602 8.35726 -4.09284 -2.15616 -0.73173 
17552 2 19.7279 7.97853 9.40881 23.9732 57.4522 60.139 
17553 2 19.7446 12.5897 9.5152 42.398 43.8227 70.1163 
17559 5 21.2085 12.1329 9.83297 6.74647 -0.64855 -11.2356 
17557 5 21.1128 8.33065 9.93016 1.04428 -11.5439 -16.13 
17556 5 18.49 8.44005 10.194 12.6022 -3.67351 -6.46222 
17631 5 18.754 12.2185 10.6826 1.98852 -5.66776 -2.73205 
20084 1 16.8199 10.2664 10.3615 -11.3509 -4.58751 -1.36367 
17566 7 22.7737 6.49197 7.09029 0.0945527 0.0181111 0.0503367 
17525 6 23.2369 6.30614 7.97014 -30.1725 -5.87764 16.9893 
15249 9 26.4199 12.3989 7.50271 0.839152 0.683422 0.246681 
14924 1 28.8784 6.30371 10.2599 25.0118 20.0104 2.55473 
17459 1 22.8153 6.36449 10.4136 -83.1994 -68.2452 38.5933 
17550 1 22.6813 10.1773 10.109 18.932 17.5733 8.90491 
15248 9 25.0074 7.30471 8.25379 6.73437 8.86474 8.77528 
15002 3 25.5553 12.1132 7.86039 -4.76828 -8.73789 8.90921 
14932 3 25.8534 7.69566 8.37038 -4.61504 -4.20084 1.30916 
15003 4 25.6929 10.0578 9.40228 -8.96434 -5.97983 -24.1402 
15000 2 25.8234 11.5586 9.33827 28.8538 102.815 76.0005 
14927 2 25.9265 8.52626 9.67582 39.2934 67.0459 75.8264 
15005 5 27.2586 12.0307 9.65026 -1.70593 -12.6299 -17.5925 
14933 5 27.3368 8.19806 10.2714 9.55826 -14.0431 -17.9048 
15004 5 24.794 12.1885 10.2281 1.34289 3.05791 -13.1898 
14907 1 29.0423 10.186 10.3202 23.8198 18.6611 23.5821 
15008 5 24.7476 8.17989 10.6591 15.6603 -0.329969 -2.27053 
14899 6 29.4402 9.94521 7.67407 -3.20993 0.0452572 5.38234 
17637 7 24.0129 13.1402 7.48134 1.60969 0.647707 -0.184066 
25427 5 0.471403 16.2254 10.9577 6.23255 -3.76358 -5.29627 
25424 5 3.05777 19.7432 10.2643 -14.9493 -6.28194 -10.0024 
25423 5 0.62854 19.9386 10.7649 3.81107 -4.46541 -10.9123 
25422 4 1.53223 17.8586 9.5283 -9.5623 7.0368 -14.276 
25421 3 1.35286 20.1653 8.46116 -3.2108 -2.57991 0.011924 
25419 2 1.68921 19.4163 9.80763 -41.9257 139.61 65.77 
25358 5 3.0433 15.9649 10.3935 5.92021 -1.2017 -11.9531 
25352 2 1.62447 16.359 9.9389 55.8809 1.89355 37.7126 
25333 1 4.76049 17.9652 10.8964 -5.64329 13.1732 -22.1087 
25357 3 1.27516 15.4524 8.77037 -12.1406 -17.306 19.0804 
25460 9 1.6173 15.8283 7.87293 0.0985699 0.36234 4.23818 
25349 1 4.58657 14.1062 10.6957 7.19079 16.2018 -7.42581 
22803 5 6.49129 16.0975 10.8756 1.31023 -0.472762 -0.0392343 
22875 5 6.46084 20.071 11.1158 20.0744 8.00861 14.7033 
25459 9 1.48999 13.6574 8.56205 -1.13833 4.88215 -4.21374 
22801 3 7.03055 16.5942 8.55987 -2.19604 -6.9646 4.17278 
2179 7 -0.387305 20.8468 8.22815 14.4002 2.22483 -6.64644 
22805 3 7.32975 19.3599 8.91011 -8.44817 -8.77484 25.9499 
22908 9 7.54595 19.9046 8.12021 0.00890971 0.263265 6.54505 
22774 6 7.84223 14.1301 6.46407 2.05505 1.28822 1.86018 
22907 9 7.21638 17.5067 8.66763 -0.098141 20.2501 1.72697 
22800 2 7.69826 20.1918 10.1825 71.1323 58.1678 36.2741 
22810 7 9.52718 17.6319 7.67339 -2.04852 0.947832 -1.98984 
22775 6 10.3724 17.5576 8.1234 -17.9582 -8.98832 6.58187 
22811 7 11.0269 17.744 7.42304 6.06764 1.05122 -1.22246 
20249 3 13.6146 20.1923 8.5115 -17.3821 -15.9816 19.571 
22799 2 7.50164 15.6895 9.76752 0.516639 20.9843 71.2643 
20181 4 13.1648 15.598 8.7498 -9.69001 -32.0041 -11.9098 
20250 4 13.59 17.8559 9.69511 -13.751 6.44801 -28.0017 
20247 2 13.6446 19.4223 9.89672 1.87508 29.1105 69.6121 
20175 2 13.7411 16.3389 9.95052 45.0186 116.087 87.1457 
20255 5 12.7826 16.0392 11.1348 -2.96445 -11.41 -16.511 
20251 5 12.5994 19.887 10.8751 -0.650577 0.0789822 10.653 
22797 1 10.5866 17.8329 10.6706 3.62436 -1.60037 27.1877 
22804 5 8.85928 16.0465 10.2629 -4.38599 -10.9959 -14.4565 
22806 5 9.15709 19.6726 10.6518 26.3136 -12.5308 -11.4529 
20209 6 12.874 15.0323 5.7533 0.487082 -0.354748 1.53574 
20174 8 12.7095 14.4625 7.54514 27.3102 10.8389 -54.1107 
22802 4 7.35344 14.1712 9.46207 -20.7087 9.42273 -28.6044 
22707 1 10.7485 14.2517 10.2767 12.5419 10.6628 1.8361 
20180 3 10.8086 14.0423 7.95232 18.2548 -8.85158 5.08335 
20260 7 13.0324 18.8856 6.99744 0.128962 1.33287 1.25874 
20261 7 12.9162 17.3666 7.33817 -0.553361 10.6142 5.59269 
20401 7 13.4229 15.9899 5.62814 -0.163277 0.311051 -1.28776 
20406 9 10.0189 14.4108 7.4707 -1.29135 2.84417 -2.45631 
20413 7 11.9327 15.1884 5.26927 -0.0685749 -0.0248252 -0.439412 
20222 6 12.7014 18.0477 6.67459 -0.740273 0.712684 -0.958417 
22813 7 7.7456 15.0607 6.62462 -0.072543 -0.0499553 0.0650715 
22812 7 7.44152 13.8113 7.30537 0.71986 1.43672 6.52369 
17861 7 18.0327 18.1656 5.18632 -0.0414445 -0.025935 -0.195498 
17849 7 19.1146 19.332 5.5722 -0.0526813 0.151829 -0.563994 
17657 6 18.7692 18.3451 5.88217 -4.86332 -2.62081 15.1271 
20252 5 14.9691 19.7344 10.5394 -8.55561 -13.6397 -18.1938 
20182 5 15.2166 16.0409 10.213 -4.00589 -20.5103 -14.0048 
17622 8 18.5634 18.0799 7.75046 32.2277 27.8052 -14.1534 
17854 9 15.9449 18.6012 8.0719 -0.316239 2.01395 -3.30047 
17628 3 16.7563 18.0742 8.25458 4.06276 -10.0185 9.59284 
17624 4 19.3217 16.6826 8.46567 -7.7555 -11.5291 -3.72458 
17629 4 18.9827 19.4332 8.85904 -13.6894 -12.2149 1.83555 
17621 2 19.6951 15.6526 9.54627 46.2264 95.1396 83.6902 
17623 2 19.5501 20.2671 10.0023 53.2179 25.5369 75.3624 
17630 5 21.0316 19.7719 10.2793 12.4484 -2.62908 -15.295 
17627 5 21.1919 15.89 9.96206 0.894371 -17.6965 -17.108 
20155 1 16.8424 17.9752 10.6946 0.45858 11.2194 -52.2527 
17626 5 18.7672 15.8963 10.7355 -8.47205 -8.55197 -12.2085 
20171 1 16.7158 14.1373 10.3208 4.85865 6.14886 -13.3228 
17625 4 19.606 14.0957 9.12525 -6.02801 7.8523 -12.2746 
17564 7 21.4906 17.2833 7.58657 -0.607212 1.548 -1.20296 
17703 5 18.6795 20.0258 11.2014 -15.2856 -12.6136 -21.3726 
17709 7 19.905 20.6273 7.34679 2.89272 4.91626 4.38234 
20259 7 15.568 20.8847 8.4035 12.1921 3.47884 -2.34998 
17526 6 22.4132 17.452 7.70597 -7.56628 -6.58869 17.8896 
17563 7 22.8092 16.6576 7.3521 0.257343 0.344883 -1.90861 
17619 1 22.5682 17.9268 10.3236 10.9131 12.6853 -56.8664 
15250 9 25.4259 16.554 7.3496 3.23301 4.17122 70.4081 
15006 3 25.6058 15.7572 7.92658 -17.2233 -12.2462 55.2711 
15072 4 25.3173 20.4252 8.40544 -12.9623 -7.81364 -2.97364 
15073 4 25.9599 17.9542 9.15621 -15.8061 5.90556 -35.3571 
15069 2 25.8295 19.4844 9.52152 46.9406 196.053 66.5854 
15075 5 27.2671 19.8707 9.91392 4.92885 -4.08589 -14.3775 
15001 2 25.8934 16.4473 9.39988 31.1855 22.3205 34.5131 
15007 5 27.2951 15.9854 9.7832 -0.56064 -10.5841 -16.1471 
14980 1 29.1857 17.8209 10.1444 -13.1924 -20.9336 16.5911 
15074 5 24.8028 19.6389 10.6176 -5.79213 -5.49779 -19.3 
15079 5 24.8396 16.1163 10.4638 8.98849 -3.37575 0.0142421 
12533 7 25.4571 18.3754 7.23091 -0.373398 4.41983 5.93897 
17532 1 22.9834 14.1035 10.1761 9.92893 12.0984 9.6053 
14998 1 28.6373 13.9834 10.0874 20.391 24.6362 13.2983 
12492 6 25.1645 17.9196 6.43544 -1.27271 -1.70798 -0.91324 
12532 7 24.2391 17.8074 6.45162 -0.0706356 0.00922176 -0.230391 
17636 7 24.2982 14.6547 7.77674 3.15351 -4.68363 -4.42229 
17597 6 27.3956 19.7327 6.47718 -16.3172 -1.05799 1.12053 
17635 7 27.0344 19.9354 7.31032 6.31675 1.19989 -2.39182 
17596 6 23.5563 13.9987 7.66239 -11.3945 -1.57731 4.53483 
14974 6 28.7308 14.0837 7.53935 -5.62327 -10.9628 7.31928 
17634 7 26.9707 18.9124 6.11254 0.288174 0.569607 -0.153627 
15084 7 28.6931 18.2675 6.90767 0.587488 2.77077 -1.55051 
15012 7 28.1952 14.867 7.30744 1.75925 1.80456 -1.75547 
15044 6 29.2899 17.8272 7.55162 -18.3674 -15.2888 14.5423 
15011 7 29.5706 14.1102 6.99075 5.04178 0.881681 -0.281145 
25461 9 1.63963 21.1191 8.56579 -0.45427 9.01427 -6.15418 
25417 1 4.459 21.7465 10.9217 -17.3924 -20.2179 -14.0335 
24923 5 0.754769 27.5218 10.9484 5.77766 1.8524 -2.8642 
25425 3 1.35108 22.98 8.77836 -10.5266 -8.31855 18.9004 
24927 5 0.559259 23.61 11.1153 15.7428 -1.54324 7.72141 
25426 5 3.10363 23.8017 10.4009 3.64709 -9.49427 -9.12346 
25420 2 1.64879 23.9265 10.0018 35.3304 97.8524 57.7847 
25401 1 4.97038 25.5329 10.7242 12.324 4.85277 9.5943 
24924 5 3.18735 27.1766 10.4054 -6.09725 -6.07831 -14.1259 
24922 4 1.38256 25.4386 9.75254 -16.3962 10.3802 -16.7782 
24919 2 1.7823 26.9563 9.95451 0.685576 144 60.0192 
24921 3 1.55556 27.7248 8.56562 -3.23545 -0.893014 8.42288 
25462 9 1.60156 23.3783 7.96981 -0.0551993 0.118703 1.8118 
22871 5 6.64021 23.6959 10.9095 4.89665 -4.77836 -5.30262 
25451 9 2.36751 27.8615 8.13061 0.0531779 0.480376 1.54919 
22375 5 6.78156 27.3777 11.2762 1.94668 -4.09067 -4.2686 
20355 9 13.7553 21.1037 8.67011 -2.66607 21.2372 -0.917694 
22873 3 7.36095 26.8242 8.94079 -1.69286 -2.97288 22.8373 
22910 9 7.83453 27.1872 8.16884 0.0150583 0.303695 5.18976 
22881 7 10.5673 22.2037 7.78641 0.176062 0.147799 -0.603525 
22880 7 12.0072 21.7432 8.22322 12.0798 4.40286 -4.61388 
22869 3 7.56442 24.0265 8.5961 -0.849328 -1.27215 0.813397 
22842 6 11.0399 21.8185 8.50693 -11.6063 -8.43785 2.99211 
22909 9 7.42422 24.9915 8.72358 -0.313965 9.47024 -0.743529 
22870 4 7.80675 21.6814 9.76784 -9.79542 13.0832 -14.2606 
22781 1 10.8959 21.6885 11.0129 -25.6419 -19.1489 24.9165 
22868 2 7.76545 27.7412 10.1816 38.4006 98.2021 41.0081 
22867 2 7.78902 23.2324 9.92461 53.6316 189.385 72.146 
22381 7 12.0152 26.341 8.4485 11.0291 9.2466 -1.43617 
20253 3 13.4682 23.4016 8.82795 -29.203 -27.4078 7.71957 
22380 7 10.8121 26.2531 7.54966 0.0742807 0.10669 0.0953312 
22342 6 11.2091 25.8188 8.3988 -19.3131 -2.82273 30.1708 
20317 3 13.3219 27.8427 9.08682 -10.2122 -12.956 -8.2523 
20248 2 13.7696 24.0294 10.2263 7.99707 4.93776 110.359 
20318 4 13.624 25.5447 10.0164 -29.0186 -19.171 -43.6931 
20315 2 13.7788 27.0543 10.3348 50.8636 -15.1718 82.9876 
22865 1 10.6865 25.3992 10.9226 12.5453 11.2652 16.024 
22872 5 9.17462 23.6871 10.462 5.35191 -15.5303 -14.6682 
22874 5 9.24947 27.6706 10.5948 6.6791 -9.79841 -10.2887 
20356 9 12.5954 23.6209 8.49206 10.2659 3.811 -10.0757 
25431 7 14.1509 26.52 7.83751 1.08513 4.74264 6.78172 
20323 5 12.8525 23.6161 11.429 1.94963 -8.41474 -0.130668 
25430 7 14.093 24.9955 7.86813 1.69986 4.72155 10.4057 
25395 6 14.4016 25.7329 7.27378 -0.139814 0.0921327 -0.157807 
20258 7 15.2294 22.3163 8.12146 1.3556 0.109399 -1.39598 
20223 6 16.0015 21.7513 8.2238 -7.30372 -1.18642 9.0125 
20245 1 16.5342 21.695 10.8038 16.4647 20.1735 30.0498 
17698 4 19.4354 21.7483 9.56107 -11.9306 -3.72947 -28.5074 
20320 5 15.2214 27.4242 10.856 4.66273 -10.9626 -14.9355 
20254 5 15.1801 23.5949 10.561 -15.766 -11.7773 -19.931 
20329 7 17.2434 26.6466 8.28058 3.99958 3.20735 -3.6339 
20328 7 16.0419 25.8023 7.61998 1.70329 -0.0178117 -0.0793869 
17803 9 18.6355 24.4714 8.19816 9.12734 9.22285 -0.605381 
20290 6 16.6573 25.8385 8.42977 -27.1153 -4.75664 8.27203 
17697 3 19.4666 23.9299 8.24968 -7.26347 -15.5267 7.2866 
17701 3 18.7572 27.5768 9.07536 -11.2548 -29.4677 -3.08942 
17695 2 19.6311 23.298 9.64847 1.1706 4.87631 77.8447 
17696 2 19.6976 27.9701 10.2409 33.8611 100.215 91.6661 
17700 5 20.9899 23.6351 10.1729 -17.5003 -7.54278 -19.3899 
17702 5 21.0953 27.3466 10.1236 7.71561 -13.4672 -20.695 
17699 5 18.7076 23.7838 10.7613 -3.14549 -4.25945 -0.941486 
20229 1 17.0048 25.6018 10.9426 17.8584 15.1546 -30.4084 
17708 7 20.0702 22.1005 7.0657 -0.250186 1.39531 0.807744 
17670 6 20.1319 21.2549 6.64674 -0.736296 0.863431 -1.30328 
17707 7 20.7868 25.2363 7.6314 4.6677 4.92012 -0.0406641 
17706 7 21.1787 26.5559 8.43819 0.120726 6.50933 6.78692 
17671 6 21.5933 25.7538 7.94146 -0.359848 -4.80452 5.25655 
17804 9 18.1596 28.2261 8.79174 4.28992 -0.372265 -3.0695 
15302 9 22.12 22.0167 7.2663 -10.7686 2.27861 -0.656961 
15082 7 28.9341 21.4367 6.98265 -0.132431 1.90881 -3.10385 
15309 7 26.1711 21.1856 5.56242 -0.0517687 0.353681 -0.581655 
15297 7 25.7773 22.9358 5.36905 0.024387 0.421661 0.0399838 
15076 3 22.8653 21.7306 7.945 5.11809 -10.265 6.70819 
15105 6 25.4296 21.9972 5.7434 2.52669 2.81186 8.76232 
15067 1 28.5009 21.8246 10.3102 8.05535 14.5392 37.9557 
17603 1 22.8719 21.8054 10.3091 41.9267 31.0517 65.8318 
15070 8 24.6898 21.8654 7.53391 8.59051 21.8638 -5.55399 
15157 7 24.761 24.7113 6.5409 0.0770011 1.42018 -2.26835 
17693 1 22.4585 25.6458 10.3024 35.3948 46.9817 61.8769 
15118 6 24.3516 25.0692 5.80024 0.216903 -0.0158715 -0.0777414 
15156 7 23.4675 25.4068 6.08223 0.347552 0.0655305 -0.017099 
12750 9 28.7793 27.0604 8.02173 -18.1358 -1.3034 -3.54582 
15145 3 25.8709 28.1424 8.32624 -25.0079 -9.93847 24.0376 
15077 4 25.2347 23.1977 8.50469 -14.7143 -21.7686 -11.7099 
15146 4 25.5466 25.6818 9.29943 -7.74765 17.7641 -15.8082 
15143 2 25.8227 27.2278 9.63665 33.8471 57.9386 43.1448 
15071 2 25.6377 24.1622 9.58877 42.1758 137.032 69.8223 
15078 5 27.0823 23.775 9.8664 3.37326 -1.54853 -12.1773 
15148 5 27.2019 27.5255 10.2775 11.3765 -13.2306 -16.1456 
15051 1 28.9278 25.6837 10.4438 0.291996 13.0161 40.99 
15147 5 24.7278 27.7419 10.5663 3.80466 -1.96896 -8.04311 
12524 3 29.1596 26.0649 8.01414 -11.3125 -1.29251 8.99611 
15045 6 29.2043 21.7754 7.82857 -18.5477 -10.9886 5.1474 
15251 9 25.5134 27.6474 7.63837 -0.0891941 -0.307505 15.5361 
15151 5 24.6677 23.8201 10.7274 -4.81877 -8.15604 -16.2864 
25272 7 0.587066 4.60334 16.115 2.59718 -0.457946 6.7709 
25198 5 4.5419 2.55475 12.6561 -16.8859 -10.7186 -10.3875 
25195 5 4.3158 -1.09258 12.7632 -0.678114 -2.85924 3.17154 
25511 9 -0.0507016 1.49098 15.9984 -3.23103 3.05168 -1.69023 
22635 1 6.05896 0.692999 12.8525 -21.6995 -5.22643 -4.76994 
25268 5 2.06322 2.89899 12.9931 -0.485567 -12.7467 -21.7548 
25258 1 0.250924 4.4912 12.7638 14.6208 8.29163 2.42578 
25207 1 0.476342 0.786529 13.0733 14.3899 35.0365 19.9724 
25191 2 3.47612 3.03985 13.5769 20.315 54.2655 56.2363 
25263 4 3.57926 4.53329 13.9916 -30.6239 -4.83575 -36.7564 
25197 4 3.26023 2.0922 14.7531 -14.6788 -27.2684 -8.31481 
25192 4 3.04502 -0.482259 14.848 -10.2144 -16.9379 -10.6215 
25196 3 0.616333 1.06046 15.3755 24.7306 -14.4552 9.63434 
25190 8 2.53182 0.875916 15.8466 -5.29141 6.06446 -31.1144 
25240 6 3.5482 0.348293 17.4099 -8.77895 -4.73399 13.6724 
25519 7 3.32442 -0.623137 17.7644 -2.50736 -11.3562 -14.3713 
25507 7 3.26549 0.95223 18.3098 1.5739 8.27889 -0.863043 
25308 6 0.0501454 4.67628 15.2787 -23.2986 -6.09128 7.69581 
25270 6 1.52185 4.46553 17.9557 -27.858 11.4431 10.0389 
22655 1 6.37544 4.67075 12.8239 -10.9629 3.37407 -5.37216 
25194 5 1.89442 -1.62182 13.1754 -0.820552 -14.2765 -18.9887 
25189 2 3.31878 -1.5892 13.8009 46.884 51.6537 92.547 
25309 7 2.38071 4.36403 17.464 20.4848 -4.6549 -4.98694 
22683 6 5.95744 0.825631 15.4415 -15.9867 -7.56346 0.156184 
22644 3 6.7682 4.58911 15.1768 31.3751 -15.3369 11.61 
22650 7 6.41097 1.58088 15.8677 1.16081 4.35892 3.06529 
22959 9 6.11646 4.46078 15.9821 6.8798 4.40754 3.22685 
22649 6 4.00272 4.16133 16.7236 -19.3522 -23.0081 -74.1865 
22684 7 3.80574 3.62631 15.9766 -0.776112 -0.700175 1.87032 
22685 7 4.06711 5.01164 16.3211 -1.57429 -4.42014 4.57754 
22687 7 5.98698 0.615454 18.7189 4.27207 5.63782 -0.909525 
20062 7 6.14265 2.70543 17.6621 7.38346 3.973 -0.1912 
25310 7 1.7253 5.22429 18.658 1.08939 16.2349 12.015 
22759 7 5.22192 4.4162 18.1423 2.95696 -1.49094 0.67184 
25472 9 2.06638 3.23259 19.0638 15.2844 13.8891 44.9293 
22651 7 5.18037 0.604718 16.0517 -26.3691 -0.616453 -1.15982 
25236 7 -0.131521 -0.203409 18.4839 2.3708 3.59067 -2.1099 
25201 6 0.0592833 0.563224 19.0773 -5.37771 -7.04359 10.2963 
22717 6 5.28696 4.02586 19.046 -28.4435 -8.33007 6.35964 
20023 6 6.95796 2.19028 17.514 -6.53342 -14.5639 -11.1816 
20061 7 7.29262 2.15279 18.426 7.04052 2.52224 10.7593 
20022 6 13.333 -1.16606 17.02 -22.3228 -28.9446 -11.2482 
20101 7 8.6651 0.618788 17.1972 4.42782 3.99222 -1.64826 
22931 9 9.85947 -1.02091 15.7119 0.0852762 2.1981 23.91 
22643 5 10.3472 2.57234 12.1955 -2.80891 -4.12137 -9.39865 
20083 1 12.0539 4.57824 12.2941 11.7158 6.59136 23.396 
22642 5 7.78438 2.32799 12.6693 -1.3417 -7.89309 -20.1068 
22572 5 10.3915 -1.19034 12.4814 0.391328 -8.15301 -7.24803 
22647 5 8.01803 -1.15376 13.3887 11.7787 -11.6971 -16.9039 
20029 1 12.4935 0.818447 12.5759 -5.59339 -1.57674 -6.59302 
20095 5 13.8672 2.81253 13.0198 5.53275 -12.3008 -12.5417 
22637 2 9.23854 2.21284 13.1776 48.1613 80.736 81.8334 
22565 2 9.47766 -0.798971 13.6553 33.4684 45.4224 52.6852 
22641 4 9.6135 0.790931 13.697 -22.4878 9.06444 -29.5592 
22640 4 9.10375 3.21619 14.2882 -9.64067 -15.0857 -10.7631 
20060 6 12.3033 0.731804 15.2065 -12.5431 -6.13361 20.8119 
20025 7 11.4354 0.396031 14.9257 7.49084 3.95156 -7.38933 
22638 8 8.67506 4.54146 15.3738 55.7405 25.912 2.87131 
20024 7 12.3936 0.167739 16.0544 3.49917 11.1084 5.54603 
22688 6 9.44454 4.27121 17.0865 -2.54732 -5.93497 19.0883 
20130 6 9.37513 -0.0619303 17.2249 1.29697 -1.07181 -15.5481 
20016 5 13.8732 -1.10957 13.0216 5.04222 -16.6259 -19.4039 
20100 7 9.10101 -0.681215 17.8736 -2.87566 -0.28188 15.3918 
22967 7 9.49471 5.07356 17.771 -0.107434 -3.46761 -4.65514 
22571 3 9.9646 -1.51281 14.9033 -21.8985 -24.4768 -16.8958 
20135 7 12.3509 -0.323445 18.479 4.87366 5.33376 4.32773 
20134 7 10.9082 0.278891 18.5001 13.5174 1.22283 1.10907 
22955 7 9.06256 3.49247 17.7736 3.34729 9.19154 22.9067 
20096 6 11.7558 0.208942 19.0516 -8.84302 -8.9029 5.07756 
20379 9 14.1676 1.71004 15.1024 17.5957 20.1623 25.3492 
20064 7 14.0171 -0.985803 16.3792 4.64803 -1.72491 2.44627 
20098 7 11.7008 4.4605 18.4773 1.26978 1.2004 -2.49646 
20063 7 13.7886 -1.811 17.6118 0.318914 14.9704 -3.38581 
17544 6 17.2058 4.23543 18.9904 -24.3772 -15.3833 11.9553 
20378 9 15.4007 0.0444891 14.8487 -5.1515 78.452 34.1622 
20012 2 15.2359 -1.61828 13.5115 12.1163 -98.9785 80.1258 
17469 5 19.9364 -1.30131 13.4326 -3.06343 -10.6776 -11.1469 
20017 5 16.2815 -1.21496 12.5395 12.0313 -2.22382 -0.998448 
20020 5 16.2894 2.4578 12.6312 2.44363 -4.70417 -1.80994 
17477 1 18.4308 4.50707 12.7514 42.7058 39.2169 56.3136 
17458 1 18.218 0.637135 12.871 43.4519 31.6041 12.2234 
17464 5 19.9587 2.61017 13.0923 0.778947 -11.6366 -12.1118 
20014 3 15.3481 -0.927596 14.9324 -24.1589 -17.1885 36.4225 
20013 2 15.2355 2.86552 13.6686 19.7781 -7.0661 66.7043 
20089 4 15.4847 4.41259 13.8828 -18.3784 27.3017 -25.7348 
17460 2 21.2934 2.30374 13.8302 54.3303 127.553 81.981 
17386 2 21.2555 -0.760946 14.0881 57.7991 175.89 29.1039 
20019 3 15.1163 1.87948 14.905 -7.03316 8.92001 19.4905 
17466 6 17.8478 0.523778 15.4089 -18.8637 -8.36004 21.4244 
17494 7 16.8797 0.401595 15.5188 14.4969 8.485 -6.50426 
17493 7 18.0911 1.12788 16.2124 3.24152 10.6931 7.36037 
17471 6 18.7445 2.69841 17.3665 -38.7966 -42.734 -27.4398 
17510 7 18.9576 2.56626 18.2777 3.75516 0.687209 -5.27765 
17509 7 19.5834 2.53374 16.9624 -2.47806 4.01945 -5.42171 
17463 4 21.2166 0.803669 14.1626 -12.2851 16.5563 -36.1184 
17508 6 18.0638 4.34756 15.2949 -29.8134 -17.1006 -1.17068 
14959 7 21.0674 1.42094 17.7104 -2.94053 11.8223 7.24426 
14960 7 20.9856 1.2357 16.2293 -2.69302 10.5054 19.4416 
17391 3 21.6813 -1.33586 15.4461 -21.6762 -39.2951 7.97624 
17825 9 21.2575 -0.863135 16.163 -3.1237 2.35119 17.524 
17462 3 21.3831 3.1532 15.1233 -3.67922 -17.0838 12.5893 
14918 6 21.3583 0.808292 17.0207 3.37816 -16.7204 -9.18402 
17826 9 20.4676 3.50823 15.3339 20.813 17.356 21.1668 
17472 7 17.991 3.92156 16.1412 3.06123 3.83433 -7.15894 
17473 7 17.1583 4.36304 14.9742 4.04322 -0.621062 -7.17638 
17827 9 21.5285 5.24452 15.3912 1.0765 41.9241 14.5088 
17582 7 16.5651 3.54529 19.2595 -4.47948 -0.0833404 -11.2552 
17583 7 17.6856 3.82105 18.2464 0.925392 1.45975 -7.304 
17456 7 17.1227 1.2286 18.5644 5.86719 1.49319 -0.669572 
17474 7 17.5336 -1.86379 15.6293 6.35686 -4.11988 -4.65324 
17499 3 20.9612 2.65749 19.244 -7.90474 -5.93327 8.96325 
17503 6 17.2262 0.55272 19.2836 -20.4633 1.96309 14.766 
15272 9 27.8509 -1.75148 15.8602 1.80204 -0.11313 70.5423 
12371 7 29.3533 3.91184 16.067 8.4029 5.23893 -6.26066 
12293 7 29.3349 1.55494 15.6953 13.8265 -8.14391 -5.77469 
12752 9 29.4817 3.8325 18.6892 -11.4834 2.4384 -4.35462 
14905 7 22.515 5.2801 18.7523 5.59313 1.10592 -9.36901 
15310 7 26.8992 -1.14711 17.0912 -6.48308 -5.53338 -26.2046 
17392 5 22.3788 -1.113 13.0479 13.4263 0.752187 3.98676 
14833 2 27.436 -1.7351 13.7653 13.2161 -50.6582 70.0872 
14837 5 26.0685 -1.25524 13.3193 -2.91634 -11.9274 -14.9509 
14835 3 27.8645 -1.11784 15.1403 -15.8062 -35.6063 5.23518 