ITEM: TIMESTEP
80000
ITEM: NUMBER OF ATOMS
25520
ITEM: BOX BOUNDS pp pp ff
-3.8959205201285124e-01 6.0088135642019459e+01
-1.9452389155355383e+00 5.9115524189537531e+01
-1.2206056431032383e+01 1.1390111600702880e+02
ITEM: ATOMS id type x y z v_stressx v_stressy v_stressz 
25292 7 5.89857 3.03966 7.5916 -2.56041 -8.51591 -6.29121 
25293 7 5.98077 1.53035 7.7064 -1.95837 -5.93008 -1.95657 
25252 6 5.35811 2.25094 7.51796 -6.26052 -3.22731 0.271298 
25287 5 0.61597 0.755495 10.7564 7.93523 -1.42373 1.76967 
25283 5 2.94291 4.2301 9.842 11.0465 6.41855 -12.7291 
25281 4 1.3887 2.44216 9.07367 -12.7438 1.76977 -15.1964 
25280 4 1.07853 5.00258 8.46007 -12.8514 -8.62404 -6.57073 
25277 2 1.45655 3.94107 9.49571 51.1772 35.3476 76.4883 
25215 5 2.99957 0.588718 9.72621 -14.1919 -9.85366 -11.5146 
25209 2 1.59287 0.935181 9.44522 8.76367 -59.9364 71.0828 
25188 1 4.8243 2.58953 9.97468 5.34749 1.29314 14.2318 
25214 3 0.796635 0.0137284 8.44439 -1.62791 -4.71003 3.37206 
25282 5 0.520916 4.37471 10.6565 -15.1169 -14.7064 -18.6513 
25458 9 1.40812 -0.435335 7.83607 0.0163101 2.15985 1.77431 
25206 1 4.52732 -1.17961 10.115 34.7467 37.6529 20.0168 
22660 5 6.52822 0.875659 10.2203 -1.2913 -5.60062 -15.9642 
22735 5 6.623 4.87348 10.5536 2.57181 -9.11442 -15.2144 
25505 7 1.83983 5.65447 5.50835 -0.0586051 -0.167894 -0.299724 
22662 3 7.17647 4.29529 8.22411 -11.859 -23.1081 -18.184 
22658 3 7.30314 0.346889 7.89736 -14.8764 -15.1185 -11.4303 
22905 9 7.65252 -0.485879 7.46068 0.0200245 -0.418398 -4.48068 
22906 9 7.50322 4.57024 7.35908 -2.80716 4.29981 9.64798 
20115 7 11.1372 2.292 6.49758 0.439993 -0.0132761 -1.15856 
22656 2 7.7059 0.365729 9.40584 21.2322 73.7584 61.7707 
20116 7 12.1136 2.88755 7.40659 19.6108 6.62515 2.59774 
20078 6 11.1398 2.86581 7.23657 -15.8109 -11.4996 1.89533 
20106 3 13.741 4.72985 7.46261 -15.6869 -10.9273 41.9902 
22657 2 7.60419 5.1024 9.41016 53.0086 -16.0014 21.7057 
20036 3 13.619 0.47741 7.57109 -16.3512 -19.3563 17.3167 
20107 4 13.6664 2.6833 8.8298 -17.7799 -13.9253 -33.5195 
20104 2 13.8784 4.18168 8.97251 30.6591 35.8779 93.6671 
20031 2 13.7132 1.1448 8.96008 62.079 163.69 12.764 
20108 5 12.6966 4.70757 9.81807 14.9592 12.1321 1.63591 
20112 5 12.4932 0.846951 9.91178 11.0984 -0.284934 6.64271 
22654 1 10.4859 2.78478 9.68506 11.3131 10.0144 10.9963 
22661 5 9.03983 1.11007 9.56315 -7.39339 -6.45667 -16.2489 
22663 5 9.10858 4.7108 9.73761 4.35064 -12.8207 -15.5367 
22563 1 10.886 -1.13469 10.1589 -0.697398 -0.677601 -18.7884 
22659 4 7.7627 -1.12896 9.68153 -9.0661 -34.5914 -35.0508 
22629 6 11.3751 -1.065 7.76545 -16.6978 5.1395 2.81113 
22669 7 11.9249 -0.207968 7.44815 1.28814 5.18718 -1.33905 
20352 9 13.8605 1.22514 6.87465 0.688142 12.4982 14.6707 
20189 7 14.2777 3.18994 6.51456 0.261772 13.4853 8.44298 
20353 9 14.543 5.23857 7.22704 7.73204 13.1826 16.8926 
20148 6 14.5671 2.45013 5.87332 0.145508 0.0589837 0.0954127 
22740 7 11.2703 5.5881 6.8279 3.26697 1.47005 -1.17093 
22738 7 8.76742 5.41578 5.90114 -0.698095 0.686214 -1.35574 
22701 6 7.85394 5.37142 5.69312 0.511927 -0.264731 7.87985 
22739 7 7.886 4.86164 4.87022 -0.0113016 0.0201065 0.00837045 
22670 7 11.9327 -1.89861 7.72342 1.03177 1.61736 -5.36772 
20188 7 15.4435 2.20345 6.22553 0.811363 -0.142048 0.0891417 
20037 5 15.0057 0.565552 9.66218 -0.821378 -6.95611 -12.9964 
20118 7 17.8719 2.63796 7.70159 5.63799 -0.361147 -3.02361 
20117 7 17.6995 1.17882 7.44002 3.00559 2.51439 -4.82214 
17799 9 19.455 -0.241526 7.33338 0.286085 6.54377 17.6837 
20077 6 17.1284 2.01775 7.60787 -23.0753 2.51567 27.1419 
17484 3 19.536 4.02271 8.03155 -4.16145 -2.47339 -2.20813 
20109 5 15.1822 4.68195 9.53593 -5.64314 -7.10815 -17.0579 
17480 3 19.3808 0.510653 7.95906 -16.2944 -31.6998 11.8119 
17478 2 19.7385 0.13463 9.405 32.7521 34.7185 49.4112 
17479 2 19.7269 4.90401 9.32133 45.8928 111.968 59.2321 
17485 5 21.0972 4.45706 9.83859 5.00932 -15.7162 -16.7391 
17483 5 21.125 0.57616 9.92672 5.13051 -10.14 -13.8634 
17482 5 18.7273 0.612358 10.4453 0.814432 -3.84285 -7.73656 
17560 5 18.5746 4.39351 10.2378 -1.01854 1.81201 -11.3258 
20011 1 16.7883 2.43064 10.1919 50.5812 45.6958 51.694 
20028 1 16.5417 -1.33752 10.1131 23.3255 16.9651 10.4038 
17481 4 19.613 -1.37684 9.30614 -12.4124 -19.4805 -38.2496 
17800 9 20.2785 3.41394 7.96437 0.293629 -2.9162 -5.51974 
20002 6 16.2002 -1.21507 7.53432 -10.3522 -7.4337 13.8505 
20044 7 15.5857 -0.449442 7.68688 4.29242 8.53221 -3.14013 
20043 7 16.3516 -1.12082 6.60323 0.281275 0.19787 -0.845225 
17377 6 19.8786 -1.6773 6.3322 0.249473 -0.137975 -0.0016942 
17415 7 20.5742 -1.92657 6.98281 2.82164 2.47805 1.87229 
14864 7 23.6314 3.83266 7.75133 5.58148 -4.69654 -1.51831 
14825 6 23.2988 2.969 7.82153 -9.28347 -3.79758 1.47267 
14863 7 24.1611 2.53617 7.90018 3.86029 -1.33479 -0.63835 
17476 1 22.5994 2.5974 10.2549 -65.8358 -41.3014 53.3356 
14928 3 25.5679 4.59148 8.20809 -30.9458 -49.7601 -45.9079 
15246 9 24.7065 0.00657495 8.04332 7.90976 10.7235 19.8494 
14856 3 25.5405 0.383335 8.16649 -12.492 -14.7045 10.8449 
14929 4 25.6618 2.47021 9.27814 -17.6863 -35.1221 -34.5748 
14851 2 25.7726 0.935136 9.6021 19.4711 -189.935 78.3386 
14926 2 25.8313 3.99121 9.61155 27.9515 144.728 89.9906 
14857 5 27.172 0.513951 10.0212 -9.51824 -11.8717 -21.3047 
14931 5 27.2703 4.30837 10.1061 -28.0686 -11.3105 -18.1129 
14832 1 28.9014 2.41808 10.4207 15.3303 11.9323 59.7367 
14930 5 24.8007 4.37565 10.6576 12.4584 -4.35993 -13.2519 
14934 5 24.7275 0.511689 10.6576 4.4706 -4.02855 -1.88409 
17384 1 22.8636 -1.16741 10.5973 -3.68884 4.16641 -36.3919 
14848 1 28.7231 -1.43222 10.2624 14.869 18.3985 9.66897 
14898 6 29.1786 2.45721 7.88738 -13.6157 -15.2328 6.33048 
15247 9 26.3681 4.66526 7.72718 -1.62013 -1.09701 -15.3282 
14826 6 28.1456 -1.3901 7.71182 1.48323 -3.34527 26.3749 
14861 7 27.5228 -0.59177 7.7367 4.97317 5.8327 -2.2522 
14862 7 28.7608 -1.17174 6.9734 0.154977 0.0372401 -0.0672444 
17565 7 23.8543 5.62398 7.62904 12.4985 3.72514 -1.76529 
17491 7 23.3409 -0.830267 7.25909 0.095519 0.068358 -0.472254 
12347 6 29.4782 5.3719 8.00631 -15.1563 -6.99764 4.45971 
14939 7 29.2544 3.33895 7.63004 0.441768 -0.931132 -1.22458 
17492 7 24.1978 -1.77871 8.08715 8.11434 2.35932 -6.37999 
17450 6 23.2929 -1.42611 8.02021 -21.3646 -6.70395 19.5213 
25291 7 5.22591 6.53661 7.32751 1.15766 1.61379 -3.20747 
25290 7 3.82687 6.55555 6.86919 -0.724276 1.61585 -4.41868 
25253 6 4.33607 6.71227 7.63615 -9.4623 -11.3358 2.32434 
25517 7 1.84279 7.29014 5.50902 -0.0282769 -0.0635468 -0.550858 
25313 6 1.21101 6.45671 5.78137 6.14682 -4.83975 30.1964 
25362 7 1.19888 10.608 6.31952 -0.0178786 -0.00386208 -0.0235007 
25275 1 4.36027 6.50413 10.1833 4.28232 12.9486 5.69564 
25278 8 0.639374 6.49188 7.63496 52.825 31.0207 9.39625 
22958 9 3.89074 10.3239 7.2783 -3.49203 1.50979 0.234004 
22732 3 4.70032 10.3548 7.96195 2.47046 -12.6393 13.6234 
25359 5 0.701437 8.49354 11.0939 -9.82874 -10.5712 -16.8143 
25356 5 3.08021 12.146 10.2169 9.86183 0.0991686 -12.9581 
25355 5 0.535314 12.2845 10.6518 -2.70926 -5.24597 -8.18596 
25354 4 1.48185 10.2856 9.54639 -13.4312 13.7097 -26.5387 
25353 3 1.39194 12.6945 8.41831 -16.2173 -9.84626 2.40323 
25351 2 1.63225 11.8296 9.72046 38.8999 48.1715 65.5693 
25286 5 2.93236 8.28049 10.0288 -5.59311 -15.8613 -18.8539 
25285 4 0.892127 7.85648 8.74192 -20.5416 -18.2137 -4.20859 
25279 2 1.49492 8.71367 9.83417 15.3821 96.9895 75.4748 
25259 1 4.86194 10.2149 10.3927 8.17422 9.01079 61.9532 
25327 6 1.60703 9.7444 6.34125 2.37261 1.30596 -0.826507 
25363 7 1.38635 9.50649 7.2315 0.436616 2.70632 1.44023 
22807 5 6.5607 12.2849 10.8694 -15.3728 -14.3911 -17.2591 
22730 5 6.65234 8.34528 10.5398 -4.56873 -14.6452 -14.0721 
22726 8 6.48614 10.4372 7.49213 -1.81538 17.7712 -26.1076 
22761 6 7.05704 10.8316 5.66761 1.78281 2.53503 6.84389 
22733 4 6.9844 11.7221 8.61372 -10.8237 -12.6368 -2.5917 
22728 4 7.23016 9.05362 8.29312 -12.7816 -20.2296 -5.78019 
22953 7 7.91026 10.1976 5.3838 -0.0667894 0.0992802 -0.652484 
22965 7 7.33207 11.8331 5.45166 -0.0490102 0.141041 -0.277822 
22741 7 11.5 7.01103 7.05421 2.59445 -0.0426498 -1.53462 
22700 6 10.8104 6.36788 7.23855 -16.01 -2.01262 18.3086 
22636 1 10.9188 6.69179 9.82281 4.84696 9.50785 12.2376 
22729 4 7.48133 6.61374 9.11192 -10.9346 -8.33786 -27.1534 
22668 7 10.5831 8.59932 7.42923 1.86752 4.31694 -3.19106 
22725 2 7.70374 8.13304 9.39568 26.2846 30.8556 95.6009 
22727 2 7.53968 12.6129 9.75953 16.3045 132.749 79.6932 
22630 6 10.7174 9.56513 7.55044 -8.09929 0.79112 5.30482 
22667 7 11.6785 9.56 7.58776 1.25998 0.717737 -1.30926 
20110 3 13.3722 8.00482 7.87861 -10.8919 -1.04809 -3.95381 
20176 4 13.3404 12.979 8.33811 -6.58042 -6.90289 -4.05721 
20177 4 13.5478 10.5013 8.95979 -6.22142 -0.261485 -16.3645 
20173 2 13.7057 11.9908 9.40771 33.3429 -5.42631 76.8217 
20105 2 13.7244 8.93675 9.12343 -2.4922 6.86348 85.9165 
20178 5 12.5598 12.2564 10.4158 -7.59801 -12.405 -22.7272 
20183 5 12.8988 8.51128 10.3587 -3.34538 -11.0972 -8.07237 
22734 5 8.97942 12.4092 10.1072 -12.2975 -12.4449 -17.3447 
22723 1 10.5486 10.4168 9.97488 -3.01737 4.01371 9.27344 
22731 5 9.11607 8.33188 9.85191 -15.5465 -24.1257 -21.9928 
20354 9 13.8366 7.1662 8.02076 -1.20377 -12.354 -25.3447 
17489 7 15.3685 7.53149 7.27379 -6.23654 -2.28722 -3.77828 
17490 7 16.4114 7.08597 6.51817 -0.226024 0.0329441 -0.3115 
17451 6 15.9423 6.78743 7.29642 -18.5433 -17.1349 17.4928 
17555 4 19.5148 6.40419 9.24816 -10.6944 2.43473 -18.6508 
20102 1 16.4765 6.46221 9.86905 10.8849 0.0423814 18.5934 
20179 5 15.0791 12.3713 9.86379 2.86586 3.85881 -11.788 
20111 5 15.0953 8.51182 9.52882 -26.0212 -13.9587 -15.1625 
17802 9 19.4832 11.878 7.51898 -0.109345 -0.100164 0.149043 
17554 3 19.6317 8.68088 7.9737 -1.84579 -5.2901 6.20931 
17801 9 19.3812 9.57046 8.10065 0.61064 12.1382 6.30039 
17558 3 19.3121 11.5602 8.35726 -4.10643 -2.03894 -0.0357187 
17552 2 19.7279 7.97853 9.40881 24.4136 57.5509 62.9037 
17553 2 19.7446 12.5897 9.5152 42.896 42.9947 70.3803 
17559 5 21.2085 12.1329 9.83297 6.85646 -0.562214 -11.2379 
17557 5 21.1128 8.33065 9.93016 1.01119 -11.4844 -16.8054 
17556 5 18.49 8.44005 10.194 12.5864 -3.7961 -7.86887 
17631 5 18.754 12.2185 10.6826 1.96354 -5.49583 -5.08826 
20084 1 16.8199 10.2664 10.3615 -11.0861 -4.2141 -0.215627 
17566 7 22.7737 6.49197 7.09029 0.0940335 0.0183316 0.0476216 
17525 6 23.2369 6.30614 7.97014 -29.7653 -5.78418 18.1047 
15249 9 26.4199 12.3989 7.50271 0.840757 0.6829 0.243835 
14924 1 28.8784 6.30371 10.2599 25.2488 20.1757 12.7754 
17459 1 22.8153 6.36449 10.4136 -83.578 -68.1427 34.0365 
17550 1 22.6813 10.1773 10.109 18.8141 17.6501 8.9721 
15248 9 25.0074 7.30471 8.25379 6.65766 8.82481 8.57562 
15002 3 25.5553 12.1132 7.86039 -4.71872 -8.7461 9.09131 
14932 3 25.8534 7.69566 8.37038 -4.56463 -4.15168 1.43028 
15003 4 25.6929 10.0578 9.40228 -8.85832 -5.86324 -23.8316 
15000 2 25.8234 11.5586 9.33827 28.3554 102.498 74.8177 
14927 2 25.9265 8.52626 9.67582 39.0289 66.1472 75.1205 
15005 5 27.2586 12.0307 9.65026 -1.5921 -12.6144 -17.7213 
14933 5 27.3368 8.19806 10.2714 9.59252 -13.8839 -17.8927 
15004 5 24.794 12.1885 10.2281 1.2647 3.21864 -13.2538 
14907 1 29.0423 10.186 10.3202 23.453 18.26 23.654 
15008 5 24.7476 8.17989 10.6591 15.461 -0.240326 -3.31587 
14899 6 29.4402 9.94521 7.67407 -3.23217 0.0636402 5.38217 
17637 7 24.0129 13.1402 7.48134 1.60529 0.646353 -0.20295 
25427 5 0.471403 16.2254 10.9577 6.10575 -3.61822 -4.67203 
25424 5 3.05777 19.7432 10.2643 -15.0049 -6.30368 -9.9951 
25423 5 0.62854 19.9386 10.7649 3.95088 -4.20136 -10.7359 
25422 4 1.53223 17.8586 9.5283 -9.54483 7.12067 -14.4083 
25421 3 1.35286 20.1653 8.46116 -3.18828 -2.58042 -0.103055 
25419 2 1.68921 19.4163 9.80763 -42.0112 139.397 66.5291 
25358 5 3.0433 15.9649 10.3935 6.10602 -1.11574 -11.7154 
25352 2 1.62447 16.359 9.9389 56.1082 1.53081 37.628 
25333 1 4.76049 17.9652 10.8964 -6.46689 12.9881 -38.1263 
25357 3 1.27516 15.4524 8.77037 -12.1613 -16.6539 18.3795 
25460 9 1.6173 15.8283 7.87293 0.100267 0.357957 4.19358 
25349 1 4.58657 14.1062 10.6957 6.72479 16.1957 -16.2049 
22803 5 6.49129 16.0975 10.8756 1.41619 -0.518934 -0.0401678 
22875 5 6.46084 20.071 11.1158 20.2388 8.01432 14.3453 
25459 9 1.48999 13.6574 8.56205 -1.51176 3.95543 -3.96999 
22801 3 7.03055 16.5942 8.55987 -2.1528 -6.869 4.09136 
2179 7 -0.387305 20.8468 8.22815 14.3375 2.21792 -6.35057 
12621 7 27.1698 26.7674 18.617 -0.507799 3.11765 13.5044 
22805 3 7.32975 19.3599 8.91011 -8.37218 -8.56575 25.6571 
22908 9 7.54595 19.9046 8.12021 0.00722009 0.256878 6.54655 
22774 6 7.84223 14.1301 6.46407 2.07115 1.3297 1.97176 
22907 9 7.21638 17.5067 8.66763 -0.116527 20.2121 1.78683 
22800 2 7.69826 20.1918 10.1825 70.3467 57.8033 37.5066 
22810 7 9.52718 17.6319 7.67339 -2.05308 0.933986 -2.0108 
22775 6 10.3724 17.5576 8.1234 -17.9388 -8.91103 6.76112 
22811 7 11.0269 17.744 7.42304 6.06133 1.0302 -1.26237 
20249 3 13.6146 20.1923 8.5115 -17.2768 -15.8436 20.3701 
22799 2 7.50164 15.6895 9.76752 0.674341 20.8914 70.7877 
20181 4 13.1648 15.598 8.7498 -9.53767 -31.9819 -11.3158 
20250 4 13.59 17.8559 9.69511 -13.7112 6.76936 -27.0794 
20247 2 13.6446 19.4223 9.89672 2.26513 28.3287 66.073 
20175 2 13.7411 16.3389 9.95052 44.4115 115.843 88.8713 
20255 5 12.7826 16.0392 11.1348 -2.78722 -11.267 -16.8154 
20251 5 12.5994 19.887 10.8751 -0.675914 -0.144961 10.7162 
22797 1 10.5866 17.8329 10.6706 3.35336 -1.75608 26.0192 
22804 5 8.85928 16.0465 10.2629 -4.40865 -11.047 -14.3349 
22806 5 9.15709 19.6726 10.6518 26.5422 -12.4353 -11.5977 
20209 6 12.874 15.0323 5.7533 0.48636 -0.350362 1.51551 
20174 8 12.7095 14.4625 7.54514 27.3396 10.8371 -54.12 
22802 4 7.35344 14.1712 9.46207 -20.7128 9.43696 -28.8317 
22707 1 10.7485 14.2517 10.2767 12.5549 10.6091 4.91275 
20180 3 10.8086 14.0423 7.95232 18.2972 -8.78356 5.08507 
20260 7 13.0324 18.8856 6.99744 0.124243 1.32508 1.24514 
20261 7 12.9162 17.3666 7.33817 -0.561386 10.5998 5.54681 
20401 7 13.4229 15.9899 5.62814 -0.163504 0.311003 -1.28195 
20406 9 10.0189 14.4108 7.4707 -1.30546 2.8167 -2.44569 
20413 7 11.9327 15.1884 5.26927 -0.068654 -0.0249882 -0.439439 
20222 6 12.7014 18.0477 6.67459 -0.736643 0.723165 -0.972156 
22813 7 7.7456 15.0607 6.62462 -0.073479 -0.0523903 0.0578679 
22812 7 7.44152 13.8113 7.30537 0.71252 1.40277 6.49249 
17861 7 18.0327 18.1656 5.18632 -0.0417511 -0.0257841 -0.195138 
17849 7 19.1146 19.332 5.5722 -0.053549 0.152127 -0.565693 
17657 6 18.7692 18.3451 5.88217 -4.79723 -2.65668 15.1526 
20252 5 14.9691 19.7344 10.5394 -8.37143 -13.6082 -17.9117 
20182 5 15.2166 16.0409 10.213 -3.94896 -20.4654 -14.3779 
17622 8 18.5634 18.0799 7.75046 32.1075 27.7965 -14.5277 
17854 9 15.9449 18.6012 8.0719 -0.358123 1.99318 -3.38859 
17628 3 16.7563 18.0742 8.25458 4.21556 -9.89366 9.80976 
17624 4 19.3217 16.6826 8.46567 -7.7994 -11.501 -3.72113 
17629 4 18.9827 19.4332 8.85904 -13.643 -12.2098 1.34613 
17621 2 19.6951 15.6526 9.54627 46.0902 94.113 82.4 
17623 2 19.5501 20.2671 10.0023 52.7498 25.4747 79.1371 
17630 5 21.0316 19.7719 10.2793 12.5866 -2.59285 -16.4666 
17627 5 21.1919 15.89 9.96206 1.16893 -17.5413 -16.9993 
20155 1 16.8424 17.9752 10.6946 2.2632 10.3739 -19.1316 
17626 5 18.7672 15.8963 10.7355 -8.73382 -8.66552 -13.0037 
20171 1 16.7158 14.1373 10.3208 5.59634 6.94003 4.57098 
17625 4 19.606 14.0957 9.12525 -6.04804 7.99714 -11.5301 
17564 7 21.4906 17.2833 7.58657 -0.588368 1.56857 -1.21201 
17703 5 18.6795 20.0258 11.2014 -15.2825 -12.5559 -22.1444 
17709 7 19.905 20.6273 7.34679 2.88599 4.90739 4.21825 
20259 7 15.568 20.8847 8.4035 12.1053 3.4965 -2.52116 
17526 6 22.4132 17.452 7.70597 -7.54752 -6.68116 18.0391 
17563 7 22.8092 16.6576 7.3521 0.252988 0.349133 -1.94519 
17619 1 22.5682 17.9268 10.3236 11.1518 12.5931 -28.3795 
15250 9 25.4259 16.554 7.3496 3.16279 4.14033 70.2804 
15006 3 25.6058 15.7572 7.92658 -16.9833 -12.0543 56.1548 
15072 4 25.3173 20.4252 8.40544 -12.9342 -7.82415 -2.91255 
15073 4 25.9599 17.9542 9.15621 -15.8195 6.19972 -34.8448 
15069 2 25.8295 19.4844 9.52152 47.0908 196.235 68.3282 
15075 5 27.2671 19.8707 9.91392 5.20916 -4.13417 -14.775 
15001 2 25.8934 16.4473 9.39988 31.63 21.7514 32.4327 
15007 5 27.2951 15.9854 9.7832 -0.456894 -10.4169 -15.8895 
14980 1 29.1857 17.8209 10.1444 -13.05 -20.9445 15.3862 
15074 5 24.8028 19.6389 10.6176 -6.21465 -5.2848 -20.0815 
15079 5 24.8396 16.1163 10.4638 8.41682 -3.43178 -0.091947 
12533 7 25.4571 18.3754 7.23091 -0.499019 4.378 5.75937 
17532 1 22.9834 14.1035 10.1761 9.52807 12.0875 8.63861 
14998 1 28.6373 13.9834 10.0874 19.9391 24.933 13.8168 
12492 6 25.1645 17.9196 6.43544 -1.25167 -1.69823 -0.925279 
12532 7 24.2391 17.8074 6.45162 -0.0746564 0.00808366 -0.22803 
17636 7 24.2982 14.6547 7.77674 3.09449 -4.75314 -4.69427 
17597 6 27.3956 19.7327 6.47718 -16.2747 -0.931341 1.14993 
17635 7 27.0344 19.9354 7.31032 6.3192 1.13947 -2.49344 
17596 6 23.5563 13.9987 7.66239 -11.3397 -1.52822 4.72066 
14974 6 28.7308 14.0837 7.53935 -5.70261 -10.8081 7.80984 
17634 7 26.9707 18.9124 6.11254 0.28605 0.567138 -0.151849 
15084 7 28.6931 18.2675 6.90767 0.591815 2.75755 -1.52826 
15012 7 28.1952 14.867 7.30744 1.76631 1.78974 -1.80295 
15044 6 29.2899 17.8272 7.55162 -18.3469 -15.1736 14.5551 
15011 7 29.5706 14.1102 6.99075 5.0435 0.862791 -0.335883 
25461 9 1.63963 21.1191 8.56579 -0.471483 9.00649 -6.01676 
25417 1 4.459 21.7465 10.9217 -16.9479 -20.2351 -6.32641 
24923 5 0.754769 27.5218 10.9484 6.13262 2.07136 -2.16697 
25425 3 1.35108 22.98 8.77836 -10.4775 -8.11102 18.0797 
24927 5 0.559259 23.61 11.1153 15.7826 -1.44342 7.96418 
25426 5 3.10363 23.8017 10.4009 3.60858 -9.29154 -9.42544 
25420 2 1.64879 23.9265 10.0018 35.248 97.3078 59.3346 
25401 1 4.97038 25.5329 10.7242 10.0488 4.97595 -16.6316 
24924 5 3.18735 27.1766 10.4054 -6.18899 -6.03803 -13.8441 
24922 4 1.38256 25.4386 9.75254 -16.3823 10.3548 -17.2157 
24919 2 1.7823 26.9563 9.95451 0.982519 144.464 60.9183 
24921 3 1.55556 27.7248 8.56562 -3.22089 -0.912432 8.34352 
25462 9 1.60156 23.3783 7.96981 -0.0572619 0.11608 1.81078 
22871 5 6.64021 23.6959 10.9095 5.00315 -4.71015 -4.5615 
25451 9 2.36751 27.8615 8.13061 0.0502847 0.480347 1.54755 
22375 5 6.78156 27.3777 11.2762 2.25799 -3.69897 -3.97295 
20355 9 13.7553 21.1037 8.67011 -2.723 21.2648 -1.09743 
22873 3 7.36095 26.8242 8.94079 -1.65989 -2.68915 22.6973 
22910 9 7.83453 27.1872 8.16884 0.0172616 0.29838 5.2088 
22881 7 10.5673 22.2037 7.78641 0.172702 0.146101 -0.59709 
22880 7 12.0072 21.7432 8.22322 12.0455 4.38718 -4.672 
22869 3 7.56442 24.0265 8.5961 -0.838318 -1.27985 0.720483 
22842 6 11.0399 21.8185 8.50693 -11.4992 -8.46817 2.84684 
22909 9 7.42422 24.9915 8.72358 -0.32492 9.44655 -0.63089 
22870 4 7.80675 21.6814 9.76784 -9.59851 13.1089 -14.7332 
22781 1 10.8959 21.6885 11.0129 -26.8299 -19.3795 15.9715 
22868 2 7.76545 27.7412 10.1816 37.2678 97.1227 38.6004 
22867 2 7.78902 23.2324 9.92461 52.9469 190.034 72.1556 
22381 7 12.0152 26.341 8.4485 10.99 9.11365 -1.51417 
20253 3 13.4682 23.4016 8.82795 -28.9075 -27.4851 7.05645 
22380 7 10.8121 26.2531 7.54966 0.0735953 0.105511 0.101487 
22342 6 11.2091 25.8188 8.3988 -19.265 -2.61532 29.8886 
20317 3 13.3219 27.8427 9.08682 -10.1683 -12.9255 -7.91953 
20248 2 13.7696 24.0294 10.2263 7.41718 2.39346 111.224 
20318 4 13.624 25.5447 10.0164 -29.0381 -18.8856 -44.0792 
20315 2 13.7788 27.0543 10.3348 51.4903 -14.5907 84.3814 
22865 1 10.6865 25.3992 10.9226 12.2448 11.0502 15.3498 
22872 5 9.17462 23.6871 10.462 5.44777 -15.6082 -13.8303 
22874 5 9.24947 27.6706 10.5948 6.98586 -9.52067 -9.6886 
20356 9 12.5954 23.6209 8.49206 10.2372 3.85473 -9.89948 
25431 7 14.1509 26.52 7.83751 1.04127 4.71075 6.70177 
20323 5 12.8525 23.6161 11.429 1.99742 -7.54155 0.849787 
25430 7 14.093 24.9955 7.86813 1.61248 4.70355 10.4044 
25395 6 14.4016 25.7329 7.27378 -0.136922 0.0924868 -0.156103 
20258 7 15.2294 22.3163 8.12146 1.3195 0.113069 -1.46371 
20223 6 16.0015 21.7513 8.2238 -7.22289 -1.18616 9.24182 
20245 1 16.5342 21.695 10.8038 16.2829 20.5811 30.4624 
17698 4 19.4354 21.7483 9.56107 -11.8735 -3.88758 -29.0387 
20320 5 15.2214 27.4242 10.856 4.51284 -11.3163 -15.2356 
20254 5 15.1801 23.5949 10.561 -15.7937 -11.287 -21.0082 
20329 7 17.2434 26.6466 8.28058 4.01157 3.19069 -3.65573 
20328 7 16.0419 25.8023 7.61998 1.70272 -0.0221636 -0.0971019 
17803 9 18.6355 24.4714 8.19816 9.10089 9.16513 -0.750593 
20290 6 16.6573 25.8385 8.42977 -27.1686 -4.55396 8.45708 
17697 3 19.4666 23.9299 8.24968 -7.0912 -15.1459 8.0627 
17701 3 18.7572 27.5768 9.07536 -11.2688 -29.3273 -3.40563 
17695 2 19.6311 23.298 9.64847 0.634425 4.49011 79.1469 
17696 2 19.6976 27.9701 10.2409 33.4406 99.4375 94.583 
17700 5 20.9899 23.6351 10.1729 -17.253 -7.64589 -19.7428 
17702 5 21.0953 27.3466 10.1236 8.03687 -13.1725 -21.2194 
17699 5 18.7076 23.7838 10.7613 -3.15171 -4.07861 -1.34984 
20229 1 17.0048 25.6018 10.9426 17.2263 14.9284 -41.2642 
17708 7 20.0702 22.1005 7.0657 -0.258413 1.37716 0.694228 
17670 6 20.1319 21.2549 6.64674 -0.731313 0.880982 -1.16194 
17707 7 20.7868 25.2363 7.6314 4.6567 4.89706 -0.138925 
17706 7 21.1787 26.5559 8.43819 0.084074 6.45724 6.75844 
17671 6 21.5933 25.7538 7.94146 -0.22772 -4.61674 5.66041 
17804 9 18.1596 28.2261 8.79174 4.29652 -0.397897 -3.04322 
15302 9 22.12 22.0167 7.2663 -10.7953 2.26271 -0.767788 
15082 7 28.9341 21.4367 6.98265 -0.134072 1.89388 -3.07277 
15309 7 26.1711 21.1856 5.56242 -0.0526251 0.35215 -0.583793 
15297 7 25.7773 22.9358 5.36905 0.0238698 0.42104 0.0382058 
15076 3 22.8653 21.7306 7.945 5.29481 -10.2276 6.90588 
15105 6 25.4296 21.9972 5.7434 2.55406 2.85388 8.84263 
15067 1 28.5009 21.8246 10.3102 6.53507 13.5788 21.839 
17603 1 22.8719 21.8054 10.3091 41.621 30.6785 64.239 
15070 8 24.6898 21.8654 7.53391 8.40563 21.9136 -6.12856 
15157 7 24.761 24.7113 6.5409 0.0619366 1.40014 -2.30523 
17693 1 22.4585 25.6458 10.3024 35.1355 46.7629 76.801 
15118 6 24.3516 25.0692 5.80024 0.218377 -0.015518 -0.074691 
15156 7 23.4675 25.4068 6.08223 0.347345 0.0656123 -0.018057 
12750 9 28.7793 27.0604 8.02173 -18.1799 -1.31336 -3.48837 
15145 3 25.8709 28.1424 8.32624 -24.898 -9.87036 23.8488 
15077 4 25.2347 23.1977 8.50469 -14.8221 -21.8017 -11.9072 
15146 4 25.5466 25.6818 9.29943 -7.71198 18.0362 -15.6416 
15143 2 25.8227 27.2278 9.63665 33.4864 57.3615 42.9999 
15071 2 25.6377 24.1622 9.58877 42.1971 137.003 70.8867 
15078 5 27.0823 23.775 9.8664 3.53493 -1.46751 -12.5613 
15148 5 27.2019 27.5255 10.2775 11.4475 -13.3437 -16.0332 
15051 1 28.9278 25.6837 10.4438 0.340831 12.9856 47.8543 
15147 5 24.7278 27.7419 10.5663 3.89773 -1.66245 -8.09807 
12524 3 29.1596 26.0649 8.01414 -11.2304 -1.29772 8.8023 
15045 6 29.2043 21.7754 7.82857 -18.4027 -10.8952 5.45509 
15251 9 25.5134 27.6474 7.63837 -0.0951775 -0.31278 15.5378 
15151 5 24.6677 23.8201 10.7274 -5.01044 -8.08535 -16.7401 
25272 7 0.535225 4.09295 16.1537 7.46238 -4.37817 4.92192 
25198 5 4.5419 2.55475 12.6561 -17.958 -9.64954 -10.6689 
25195 5 4.3158 -1.09258 12.7632 -1.09388 -3.53806 5.1462 
25511 9 -0.172681 1.11781 15.7802 -10.9891 5.27559 1.50484 
22635 1 6.05896 0.692999 12.8525 -25.8943 -7.43583 -8.58625 
25268 5 2.06322 2.89899 12.9931 -1.31297 -13.7203 -24.0752 
25258 1 0.250924 4.4912 12.7638 1.90947 -1.66634 3.0253 
25207 1 0.476342 0.786529 13.0733 9.57988 30.3631 9.89095 
25191 2 3.47612 3.03985 13.5769 23.1305 75.4928 67.8035 
25263 4 3.57926 4.53329 13.9916 -26.3236 4.04688 -28.5037 
25197 4 3.26023 2.0922 14.7531 -19.8864 -35.8283 -18.4363 
25192 4 3.04502 -0.482259 14.848 -8.32086 -19.8163 -6.37653 
25196 3 0.667007 1.00889 15.1318 -0.260291 -24.8987 -1.79962 
25190 8 2.43872 0.901573 15.7662 -56.7095 11.2822 -76.322 
25240 6 2.80777 1.15572 17.6026 11.9432 -24.296 -19.0832 
25519 7 3.70655 1.51687 18.0001 -4.64254 -1.74101 -15.3992 
25507 7 2.64123 0.386464 18.3548 -7.68638 -2.46595 -41.322 
22649 6 4.63529 4.34063 17.0205 -18.1369 -3.34163 -10.5811 
25308 6 0.0286587 4.31504 15.3019 -40.39 2.24321 -0.69173 
25270 6 1.50136 4.1774 17.5069 -14.6053 5.03219 -7.53529 
25310 7 1.65971 3.24273 17.5964 1.04475 0.265227 -1.84912 
22655 1 6.37544 4.67075 12.8239 -3.19502 3.67756 -4.78371 
25194 5 1.89442 -1.62182 13.1754 -0.756026 -16.1418 -19.4279 
25189 2 3.31878 -1.5892 13.8009 42.7715 156.608 94.4471 
25309 7 0.858631 4.38873 18.2552 13.0234 -1.9873 4.72407 
22683 6 6.01605 1.11674 15.4078 -12.5326 -6.83127 5.15862 
22650 7 6.28435 1.05084 16.3392 4.36625 2.00456 3.6382 
22684 7 3.76893 3.98719 17.0345 -0.0135504 -0.391647 -2.01406 
22644 3 6.85948 4.78794 15.1701 5.4753 -12.0378 6.52827 
22651 7 5.07122 1.51613 15.3377 1.69379 4.04133 -5.64562 
22959 9 6.34164 5.34239 15.9307 -24.604 3.01606 0.3066 
22759 7 5.66198 4.78313 18.5834 4.14691 -0.00296372 2.07287 
22687 7 6.47075 0.312302 18.6501 10.7609 2.80314 12.0308 
22685 7 4.6798 4.63859 16.1185 3.5288 3.39797 1.55287 
12552 7 29.5565 22.8689 18.8446 3.19557 2.89171 0.546728 
20061 7 8.16054 1.52018 18.3992 -1.45007 -0.837779 0.450984 
20023 6 7.72136 1.14858 17.6419 -30.3252 -12.9914 -24.6799 
20022 6 13.292 -1.27476 16.8884 -15.2951 -15.4089 25.7089 
20062 7 8.30599 0.500052 17.2843 0.342044 -4.32003 -5.72189 
20101 7 10.772 0.252398 17.9486 12.1962 2.93231 -0.650391 
22931 9 9.64996 -1.04779 15.7241 -1.2051 2.71274 -8.0948 
22643 5 10.3472 2.57234 12.1955 -2.5181 -4.64887 -8.71303 
20083 1 12.0539 4.57824 12.2941 14.5927 8.01729 22.3245 
22642 5 7.78438 2.32799 12.6693 -1.42293 -7.71683 -20.3838 
22572 5 10.3915 -1.19034 12.4814 -1.26866 -8.51202 -7.67295 
22647 5 8.01803 -1.15376 13.3887 9.21295 -14.1963 -16.1867 
20029 1 12.4935 0.818447 12.5759 -5.33037 2.55438 -12.6478 
20095 5 13.8672 2.81253 13.0198 -9.34844 -11.2722 -15.0594 
22637 2 9.23854 2.21284 13.1776 46.0461 17.6817 75.8977 
22565 2 9.47766 -0.798971 13.6553 27.9451 50.5798 51.6044 
22641 4 9.6135 0.790931 13.697 -21.2175 -1.0782 -23.7674 
22640 4 9.10375 3.21619 14.2882 -9.85971 -20.0963 -10.2275 
20060 6 12.2726 0.758386 15.135 -12.4851 -12.0696 2.36284 
20025 7 11.4355 0.382707 15.3874 1.22771 2.88948 -2.91452 
22638 8 8.69057 4.4938 15.4113 -6.60053 11.498 -25.3884 
20024 7 12.9067 0.334249 15.7501 2.62099 5.53689 -1.06566 
22688 6 9.42606 4.59051 17.2298 -1.93739 0.209769 24.4667 
20130 6 9.92413 -0.202846 17.6894 -5.78055 -6.75586 -4.34247 
20016 5 13.8732 -1.10957 13.0216 4.57308 -15.0041 -19.0926 
20100 7 9.57826 -0.691514 18.4457 -0.228737 4.03064 1.62752 
22967 7 9.14701 3.72328 17.8464 -0.0451169 4.7819 -10.9107 
22571 3 9.87919 -1.58421 14.9241 -19.0226 -11.3906 0.613931 
22955 7 9.0743 5.38201 17.836 -2.43847 -2.46846 -18.7604 
20064 7 14.1095 -1.17399 16.3076 14.0391 -1.28494 2.37963 
20379 9 14.2015 1.67966 15.0387 -8.92995 -3.28999 -13.8173 
20134 7 13.0351 0.0270937 18.8713 6.35159 0.642703 1.103 
20063 7 13.6995 -1.54374 17.8053 9.36663 3.1258 23.8926 
25513 9 -0.207111 7.77865 18.3823 -40.1127 3.41912 -6.62556 
20366 9 14.3894 2.06908 19.4394 -3.67816 -7.71886 -41.066 
12367 6 29.8566 11.9069 18.8539 -16.4193 -9.68764 18.9533 
17456 7 16.9094 1.45031 19.4419 21.846 2.6573 -1.95558 
12406 7 29.6233 12.262 17.9462 3.95494 1.55395 3.2562 
20378 9 15.4007 0.0444891 14.8487 1.30504 29.7185 29.8805 
20012 2 15.2359 -1.61828 13.5115 17.7015 -137.066 74.4994 
17469 5 19.9364 -1.30131 13.4326 -17.4058 -12.9092 -12.6945 
20017 5 16.2815 -1.21496 12.5395 12.2831 -1.37943 -0.744923 
20020 5 16.2894 2.4578 12.6312 -10.1657 -6.24402 -12.9526 
17477 1 18.4308 4.50707 12.7514 44.4503 36.4769 57.9949 
17458 1 18.218 0.637135 12.871 50.8199 37.8092 19.5254 
17464 5 19.9587 2.61017 13.0923 -0.653625 -14.2109 -15.3088 
20014 3 15.3481 -0.927596 14.9324 -23.3616 -12.5536 30.6789 
20013 2 15.2355 2.86552 13.6686 11.5595 -27.6714 49.3984 
20089 4 15.4847 4.41259 13.8828 -14.9713 -6.47486 -20.4697 
17460 2 21.2934 2.30374 13.8302 70.4552 -64.6319 83.9189 
17386 2 21.2555 -0.760946 14.0881 54.9125 169.233 44.3124 
20019 3 15.1582 1.87354 14.9553 -6.45124 -0.435341 -1.51806 
17466 6 17.9367 0.977187 15.5133 -17.3995 -9.04272 20.0329 
17494 7 17.2201 1.53035 15.2111 -4.49382 0.0781615 -7.23408 
17493 7 18.3764 1.52709 16.202 4.70619 5.93592 1.49915 
17471 6 19.3035 2.85443 17.312 -0.325492 -14.4825 -7.73837 
17510 7 19.8371 3.09227 16.564 8.95188 2.86161 -4.68524 
17509 7 20.0689 2.87244 17.9762 15.6689 1.33808 7.10052 
17463 4 21.2166 0.803669 14.1626 -11.2473 -13.296 -24.2625 
17472 7 18.2905 4.29078 16.0804 4.64666 9.4105 6.80459 
17508 6 18.0829 4.90291 15.2915 -19.8548 -4.81504 26.6784 
17473 7 17.1369 5.06081 15.5269 6.84575 -0.335718 -0.761094 
14959 7 21.1718 -0.404585 18.1774 0.176922 1.27452 1.81523 
14960 7 21.3218 1.00891 17.8351 -0.118294 0.266406 1.79269 
17391 3 21.6257 -1.29272 15.4702 -20.7174 -41.9043 -39.3109 
17825 9 21.4881 -0.585582 16.1215 -3.95637 6.91202 -159.407 
17462 3 21.2426 3.28435 15.0165 -20.8058 -20.8435 -3.37774 
14918 6 21.7177 0.163519 17.6365 -13.0714 -5.91211 -9.87315 
17583 7 17.9495 3.94542 18.2974 7.76425 7.35344 -0.384553 
17826 9 21.1905 4.217 14.6745 -0.969136 47.6092 1.61994 
17544 6 17.5177 4.38542 19.0577 -15.0788 -13.1879 27.6233 
25237 7 -0.193732 0.838442 18.5644 3.48192 3.88364 -1.68049 
14904 7 22.8668 4.12998 18.7583 12.7171 4.5829 -3.54094 
12292 7 29.4117 1.44987 15.912 7.29885 -0.118866 -4.327 
12371 7 29.2661 4.73101 16.5294 1.09645 4.97783 2.30547 
17392 5 22.3788 -1.113 13.0479 12.9438 -1.46681 4.79913 
15272 9 26.589 -0.905678 15.5107 3.35225 0.238118 -35.4428 
14833 2 27.436 -1.7351 13.7653 -5.85086 -35.8737 79.8336 
14837 5 26.0685 -1.25524 13.3193 -0.422318 -15.1476 -19.5402 
14835 3 27.5031 -1.04725 15.2027 -12.6571 -19.8593 -12.1679 
17465 5 22.4822 2.65522 12.8638 4.15019 1.54761 2.6157 
14838 5 28.4591 -1.17305 12.8109 -10.8273 -7.57463 -14.3535 
14840 5 28.4301 2.34442 12.9979 -17.5391 -4.30935 -3.92292 
14906 1 24.3647 4.44957 12.9572 23.1006 17.3984 -76.5889 
14849 1 24.5191 0.684911 13.2379 -36.6085 -32.9277 -4.78914 
14917 5 26.0089 2.42981 13.448 -5.29841 -19.1763 -15.3816 
14911 4 27.5781 4.44263 13.9748 -28.5736 -21.2558 -33.2738 