ITEM: TIMESTEP
450000
ITEM: NUMBER OF ATOMS
25517
ITEM: BOX BOUNDS pp pp ff
-3.8959205201285124e-01 6.0088135642019459e+01
-1.9452389155355383e+00 5.9115524189537531e+01
-1.2206056431032383e+01 1.1390111600702880e+02
ITEM: ATOMS id type x y z v_stressx v_stressy v_stressz 
25292 7 5.89857 3.03966 7.5916 -2.50316 -8.48442 -6.27108 
25293 7 5.98077 1.53035 7.7064 -1.91895 -5.89451 -1.93304 
25252 6 5.35811 2.25094 7.51796 -6.31388 -3.2552 0.223645 
25287 5 0.61597 0.755495 10.7564 7.81803 -1.54949 4.45464 
25283 5 2.94291 4.2301 9.842 10.9038 6.46209 -13.069 
25281 4 1.3887 2.44216 9.07367 -13.2271 1.88228 -16.6863 
25280 4 1.07853 5.00258 8.46007 -12.9534 -8.564 -7.04861 
25277 2 1.45655 3.94107 9.49571 51.7358 36.5905 80.0263 
25215 5 2.99957 0.588718 9.72621 -14.5502 -9.99189 -12.1544 
25209 2 1.59287 0.935181 9.44522 8.95095 -57.9752 74.443 
25188 1 4.8243 2.58953 9.97468 4.7758 0.830042 14.6496 
25214 3 0.796635 0.0137284 8.44439 -1.99139 -4.51224 2.15521 
25282 5 0.520916 4.37471 10.6565 -15.0594 -14.4818 -18.6416 
25458 9 1.40812 -0.435335 7.83607 0.0265095 2.10171 1.73176 
25206 1 4.52732 -1.17961 10.115 34.4685 37.735 20.5182 
22660 5 6.52822 0.875659 10.2203 -1.217 -5.58005 -15.4447 
22735 5 6.623 4.87348 10.5536 2.16182 -9.22647 -12.7453 
25505 7 1.83983 5.65447 5.50835 -0.0562256 -0.162855 -0.297918 
15300 7 27.1932 22.5063 16.9258 -3.97077 -0.713945 1.17706 
22662 3 7.17647 4.29529 8.22411 -11.9217 -23.2339 -18.6817 
22658 3 7.30314 0.346889 7.89736 -14.9203 -15.2149 -11.2443 
22905 9 7.65252 -0.485879 7.46068 0.0197808 -0.415239 -4.496 
22906 9 7.50322 4.57024 7.35908 -2.76794 4.32402 9.65897 
20115 7 11.1372 2.292 6.49758 0.447057 -0.00592014 -1.15796 
22656 2 7.7059 0.365729 9.40584 22.1521 73.8014 61.947 
20116 7 12.1136 2.88755 7.40659 19.7074 6.67586 2.76007 
20078 6 11.1398 2.86581 7.23657 -15.9967 -11.6217 1.66636 
20106 3 13.741 4.72985 7.46261 -15.7176 -11.0981 41.9614 
22657 2 7.60419 5.1024 9.41016 52.9454 -16.1244 20.5883 
20036 3 13.619 0.47741 7.57109 -16.5799 -19.5511 16.5755 
20107 4 13.6664 2.6833 8.8298 -17.898 -14.0669 -33.9261 
20104 2 13.8784 4.18168 8.97251 31.1421 36.1027 93.8792 
20031 2 13.7132 1.1448 8.96008 62.2215 163.846 14.5454 
20108 5 12.6966 4.70757 9.81807 14.7313 11.9453 1.80108 
20112 5 12.4932 0.846951 9.91178 11.3115 -0.290261 6.76001 
22654 1 10.4859 2.78478 9.68506 11.5286 10.0717 11.7397 
22661 5 9.03983 1.11007 9.56315 -7.61978 -6.44996 -16.3187 
22663 5 9.10858 4.7108 9.73761 4.35024 -12.8404 -15.4475 
22563 1 10.886 -1.13469 10.1589 -1.30717 -0.544706 -25.4441 
22659 4 7.7627 -1.12896 9.68153 -9.51911 -34.959 -35.4991 
22629 6 11.3751 -1.065 7.76545 -16.8277 5.01057 2.57822 
22669 7 11.9249 -0.207968 7.44815 1.31828 5.21648 -1.28243 
20352 9 13.8605 1.22514 6.87465 0.720964 12.5313 14.7026 
20189 7 14.2777 3.18994 6.51456 0.276044 13.5251 8.44598 
20353 9 14.543 5.23857 7.22704 7.73334 13.2238 16.8751 
20148 6 14.5671 2.45013 5.87332 0.144701 0.0571538 0.0981966 
22740 7 11.2703 5.5881 6.8279 3.28679 1.48452 -1.19064 
22738 7 8.76742 5.41578 5.90114 -0.67743 0.70706 -1.34534 
22701 6 7.85394 5.37142 5.69312 0.446967 -0.342542 7.81825 
22739 7 7.886 4.86164 4.87022 -0.0110269 0.020361 0.00871017 
22670 7 11.9327 -1.89861 7.72342 1.05871 1.66994 -5.25628 
20188 7 15.4435 2.20345 6.22553 0.811596 -0.136903 0.0849187 
20037 5 15.0057 0.565552 9.66218 -1.09037 -7.00483 -13.1351 
20118 7 17.8719 2.63796 7.70159 5.67199 -0.328976 -2.88284 
20117 7 17.6995 1.17882 7.44002 3.02101 2.5632 -4.66205 
17799 9 19.455 -0.241526 7.33338 0.328045 6.59421 17.9705 
20077 6 17.1284 2.01775 7.60787 -23.2293 2.28472 26.5294 
17484 3 19.536 4.02271 8.03155 -4.19611 -2.55148 -2.41963 
20109 5 15.1822 4.68195 9.53593 -5.74975 -7.17351 -16.983 
17480 3 19.3808 0.510653 7.95906 -16.5351 -32.0794 10.6635 
17478 2 19.7385 0.13463 9.405 32.1545 34.6776 47.2406 
17479 2 19.7269 4.90401 9.32133 46.205 112.977 60.8155 
17485 5 21.0972 4.45706 9.83859 4.92624 -15.9702 -16.873 
17483 5 21.125 0.57616 9.92672 5.10186 -10.0128 -13.1931 
17482 5 18.7273 0.612358 10.4453 1.20258 -3.57935 -6.16839 
17560 5 18.5746 4.39351 10.2378 -1.19843 1.59036 -10.9998 
20011 1 16.7883 2.43064 10.1919 50.8301 45.9662 50.1945 
20028 1 16.5417 -1.33752 10.1131 23.8193 17.0932 9.63655 
17481 4 19.613 -1.37684 9.30614 -12.2365 -19.5964 -37.3444 
17800 9 20.2785 3.41394 7.96437 0.302346 -2.89745 -5.44941 
20002 6 16.2002 -1.21507 7.53432 -10.4153 -7.52697 13.5104 
20044 7 15.5857 -0.449442 7.68688 4.33335 8.57399 -2.91595 
20043 7 16.3516 -1.12082 6.60323 0.281728 0.20056 -0.842204 
17377 6 19.8786 -1.6773 6.3322 0.247021 -0.138515 -0.0180271 
17415 7 20.5742 -1.92657 6.98281 2.86737 2.47698 2.15918 
14864 7 23.6314 3.83266 7.75133 5.6017 -4.69142 -1.44286 
14825 6 23.2988 2.969 7.82153 -9.33385 -3.80976 1.34832 
14863 7 24.1611 2.53617 7.90018 3.886 -1.32842 -0.58095 
17476 1 22.5994 2.5974 10.2549 -65.3991 -40.7725 58.354 
14928 3 25.5679 4.59148 8.20809 -31.2311 -49.8882 -46.2846 
15246 9 24.7065 0.00657495 8.04332 8.00191 10.7775 20.1374 
14856 3 25.5405 0.383335 8.16649 -12.5786 -14.7702 10.6144 
14929 4 25.6618 2.47021 9.27814 -17.765 -35.2993 -33.902 
14851 2 25.7726 0.935136 9.6021 19.4183 -189.88 75.7591 
14926 2 25.8313 3.99121 9.61155 28.8813 145.908 88.9008 
14857 5 27.172 0.513951 10.0212 -9.59985 -11.9779 -21.1293 
14931 5 27.2703 4.30837 10.1061 -28.2885 -11.5445 -17.8632 
14832 1 28.9014 2.41808 10.4207 15.0332 12.0785 57.3285 
14930 5 24.8007 4.37565 10.6576 12.1576 -4.52702 -13.4997 
14934 5 24.7275 0.511689 10.6576 4.54305 -3.90602 -0.63788 
17384 1 22.8636 -1.16741 10.5973 -0.964045 4.12901 -8.82041 
14848 1 28.7231 -1.43222 10.2624 15.2308 18.6203 5.3926 
14898 6 29.1786 2.45721 7.88738 -13.7567 -15.3736 6.18667 
15247 9 26.3681 4.66526 7.72718 -1.6209 -1.0952 -15.3217 
14826 6 28.1456 -1.3901 7.71182 1.30813 -3.5032 26.0934 
14861 7 27.5228 -0.59177 7.7367 4.99408 5.85629 -2.19512 
14862 7 28.7608 -1.17174 6.9734 0.155414 0.0382246 -0.06481 
17565 7 23.8543 5.62398 7.62904 12.5495 3.75539 -1.5471 
17491 7 23.3409 -0.830267 7.25909 0.0969385 0.0710654 -0.450537 
12347 6 29.4782 5.3719 8.00631 -15.2771 -7.13254 4.11427 
14939 7 29.2544 3.33895 7.63004 0.451564 -0.921105 -1.21328 
17492 7 24.1978 -1.77871 8.08715 8.22763 2.47714 -6.06564 
17450 6 23.2929 -1.42611 8.02021 -21.6857 -6.99649 18.7505 
25291 7 5.22591 6.53661 7.32751 1.17684 1.6571 -3.21985 
25290 7 3.82687 6.55555 6.86919 -0.695615 1.65421 -4.45134 
25253 6 4.33607 6.71227 7.63615 -9.55192 -11.553 2.21189 
25517 7 1.84279 7.29014 5.50902 -0.0257221 -0.0615569 -0.554257 
25313 6 1.21101 6.45671 5.78137 6.02891 -5.10064 30.4761 
25362 7 1.19888 10.608 6.31952 -0.0182745 -0.0206082 -0.0244803 
25275 1 4.36027 6.50413 10.1833 2.54297 12.0162 12.4538 
25278 8 0.639374 6.49188 7.63496 53.1146 31.688 10.0718 
22958 9 3.89074 10.3239 7.2783 -3.48063 1.48385 0.208127 
22732 3 4.70032 10.3548 7.96195 2.43016 -12.616 13.7805 
25359 5 0.701437 8.49354 11.0939 -9.85221 -10.4077 -17.3419 
25356 5 3.08021 12.146 10.2169 9.96226 0.0496529 -13.2021 
25355 5 0.535314 12.2845 10.6518 -2.78967 -5.45467 -7.98969 
25354 4 1.48185 10.2856 9.54639 -13.6986 13.7877 -27.1248 
25353 3 1.39194 12.6945 8.41831 -12.908 -7.83639 4.96335 
25351 2 1.63225 11.8296 9.72046 40.8826 49.1282 66.6953 
25286 5 2.93236 8.28049 10.0288 -5.62867 -16.1066 -19.7573 
25285 4 0.892127 7.85648 8.74192 -20.752 -18.6293 -5.14343 
25279 2 1.49492 8.71367 9.83417 16.174 98.0557 80.5601 
25259 1 4.86194 10.2149 10.3927 8.24561 9.50649 60.8967 
25327 6 1.60703 9.7444 6.34125 2.33894 1.46683 -0.704623 
25363 7 1.38635 9.50649 7.2315 0.505984 2.60238 1.28469 
22807 5 6.5607 12.2849 10.8694 -15.8494 -14.7229 -18.0567 
22730 5 6.65234 8.34528 10.5398 -4.69166 -14.6376 -13.6745 
22726 8 6.48614 10.4372 7.49213 -1.71241 17.8073 -26.775 
22761 6 7.05704 10.8316 5.66761 1.77493 2.51945 6.8202 
22733 4 6.9844 11.7221 8.61372 -10.9196 -12.6862 -2.42662 
22728 4 7.23016 9.05362 8.29312 -12.8708 -20.3174 -5.7278 
22953 7 7.91026 10.1976 5.3838 -0.0660925 0.100012 -0.651998 
22965 7 7.33207 11.8331 5.45166 -0.049225 0.141408 -0.27677 
22741 7 11.5 7.01103 7.05421 2.60878 -0.0285631 -1.55555 
22700 6 10.8104 6.36788 7.23855 -16.1696 -2.15376 18.4675 
22636 1 10.9188 6.69179 9.82281 4.75876 9.58232 12.2492 
22729 4 7.48133 6.61374 9.11192 -11.1539 -8.65218 -27.9646 
22668 7 10.5831 8.59932 7.42923 1.9225 4.35119 -3.13338 
22725 2 7.70374 8.13304 9.39568 26.9873 31.7063 97.7416 
22727 2 7.53968 12.6129 9.75953 16.9087 132.758 79.9327 
22630 6 10.7174 9.56513 7.55044 -8.22939 0.740996 5.21079 
22667 7 11.6785 9.56 7.58776 1.28025 0.729312 -1.29775 
20110 3 13.3722 8.00482 7.87861 -10.9521 -1.13386 -3.80732 
20176 4 13.3404 12.979 8.33811 -6.61095 -6.97474 -4.09683 
20177 4 13.5478 10.5013 8.95979 -6.27158 -0.323627 -16.2209 
20173 2 13.7057 11.9908 9.40771 34.0588 -5.02911 75.8917 
20105 2 13.7244 8.93675 9.12343 -1.95262 6.90951 85.6876 
20178 5 12.5598 12.2564 10.4158 -7.64095 -12.4607 -22.339 
20183 5 12.8988 8.51128 10.3587 -3.54094 -11.0821 -7.77361 
22734 5 8.97942 12.4092 10.1072 -12.3913 -12.5172 -17.1925 
22723 1 10.5486 10.4168 9.97488 -3.1021 4.31368 9.31818 
22731 5 9.11607 8.33188 9.85191 -15.621 -24.4252 -22.33 
20354 9 13.8366 7.1662 8.02076 -1.18398 -12.3068 -25.4462 
17489 7 15.3685 7.53149 7.27379 -6.21767 -2.27052 -3.80249 
17490 7 16.4114 7.08597 6.51817 -0.225523 0.0336415 -0.311253 
17451 6 15.9423 6.78743 7.29642 -18.6551 -17.2388 17.5986 
17555 4 19.5148 6.40419 9.24816 -10.8138 2.41674 -18.7589 
20102 1 16.4765 6.46221 9.86905 11.0799 0.263765 18.2077 
20179 5 15.0791 12.3713 9.86379 2.59648 3.72395 -11.5734 
20111 5 15.0953 8.51182 9.52882 -26.1635 -13.9096 -14.9951 
17802 9 19.4832 11.878 7.51898 -0.106319 -0.0989735 0.16883 
17554 3 19.6317 8.68088 7.9737 -1.87422 -5.30506 6.24665 
17801 9 19.3812 9.57046 8.10065 0.631347 12.1223 6.21797 
17558 3 19.3121 11.5602 8.35726 -4.09454 -1.96887 -0.0425693 
17552 2 19.7279 7.97853 9.40881 25.1376 58.4052 61.2972 
17553 2 19.7446 12.5897 9.5152 42.7855 43.0949 69.1383 
17559 5 21.2085 12.1329 9.83297 6.86366 -0.540619 -10.8669 
17557 5 21.1128 8.33065 9.93016 0.994178 -11.6184 -15.8774 
17556 5 18.49 8.44005 10.194 12.409 -4.34114 -8.73985 
17631 5 18.754 12.2185 10.6826 2.22488 -5.33799 -4.67746 
20084 1 16.8199 10.2664 10.3615 -10.9593 -3.88279 -1.10672 
17566 7 22.7737 6.49197 7.09029 0.0946067 0.0189894 0.0523777 
17525 6 23.2369 6.30614 7.97014 -30.1181 -6.03027 16.9536 
15249 9 26.4199 12.3989 7.50271 0.841903 0.684499 0.238272 
14924 1 28.8784 6.30371 10.2599 24.9819 19.8999 9.84022 
17459 1 22.8153 6.36449 10.4136 -83.4706 -68.212 35.7606 
17550 1 22.6813 10.1773 10.109 18.8444 17.7655 8.56492 
15248 9 25.0074 7.30471 8.25379 6.73536 8.87552 8.69944 
15002 3 25.5553 12.1132 7.86039 -4.7636 -8.75887 9.06956 
14932 3 25.8534 7.69566 8.37038 -4.64103 -4.21588 1.35263 
15003 4 25.6929 10.0578 9.40228 -9.03211 -5.90767 -23.6313 
15000 2 25.8234 11.5586 9.33827 29.1197 102.515 73.9561 
14927 2 25.9265 8.52626 9.67582 40.1878 66.5057 74.4398 
15005 5 27.2586 12.0307 9.65026 -1.66184 -12.7166 -17.595 
14933 5 27.3368 8.19806 10.2714 9.42792 -13.9105 -17.662 
15004 5 24.794 12.1885 10.2281 1.01177 3.05076 -13.1048 
14907 1 29.0423 10.186 10.3202 23.6036 18.7289 23.0943 
15008 5 24.7476 8.17989 10.6591 15.7797 -0.178611 -2.28308 
14899 6 29.4402 9.94521 7.67407 -3.24357 0.0374922 5.36293 
17637 7 24.0129 13.1402 7.48134 1.60736 0.649788 -0.207624 
25427 5 0.471403 16.2254 10.9577 6.19971 -3.46925 -3.94704 
25424 5 3.05777 19.7432 10.2643 -15.1123 -6.31645 -9.61255 
25423 5 0.62854 19.9386 10.7649 4.28816 -4.31263 -10.0554 
25422 4 1.53223 17.8586 9.5283 -9.65966 7.13303 -14.1269 
25421 3 1.35286 20.1653 8.46116 -3.24582 -2.58222 -0.101885 
25419 2 1.68921 19.4163 9.80763 -41.2927 139.632 64.7566 
25358 5 3.0433 15.9649 10.3935 5.95775 -1.1028 -11.3299 
25352 2 1.62447 16.359 9.9389 56.6942 2.24673 34.9305 
25333 1 4.76049 17.9652 10.8964 -6.76174 13.5828 -49.2699 
25357 3 1.27516 15.4524 8.77037 -12.095 -17.8253 18.9791 
25460 9 1.6173 15.8283 7.87293 0.0930695 0.363637 4.28171 
25349 1 4.58657 14.1062 10.6957 7.65209 16.3873 5.33483 
22803 5 6.49129 16.0975 10.8756 1.2444 -0.460024 -0.554481 
22875 5 6.46084 20.071 11.1158 20.5311 8.04133 7.86168 
25459 9 1.48999 13.6574 8.56205 -1.01796 5.19186 -4.3859 
22801 3 7.03055 16.5942 8.55987 -2.20096 -6.90204 4.16544 
2179 7 -0.387305 20.8468 8.22815 14.4137 2.19787 -6.5326 
15057 5 28.5083 21.6795 12.7637 -1.51966 -2.15894 -8.34197 
22805 3 7.32975 19.3599 8.91011 -8.48774 -8.74095 26.1486 
22908 9 7.54595 19.9046 8.12021 0.0109651 0.261726 6.54796 
22774 6 7.84223 14.1301 6.46407 2.07574 1.26556 1.82292 
22907 9 7.21638 17.5067 8.66763 -0.0956851 20.2076 1.70174 
22800 2 7.69826 20.1918 10.1825 71.5343 59.0141 37.4724 
22810 7 9.52718 17.6319 7.67339 -2.04306 0.945932 -1.96522 
22775 6 10.3724 17.5576 8.1234 -18.1046 -8.97521 6.44768 
22811 7 11.0269 17.744 7.42304 6.08281 1.04951 -1.16307 
20249 3 13.6146 20.1923 8.5115 -17.462 -16.0137 19.7644 
22799 2 7.50164 15.6895 9.76752 1.20761 21.0357 71.0529 
20181 4 13.1648 15.598 8.7498 -9.77529 -32.1532 -11.7178 
20250 4 13.59 17.8559 9.69511 -13.8085 6.7338 -26.9125 
20247 2 13.6446 19.4223 9.89672 2.31356 28.9101 66.7634 
20175 2 13.7411 16.3389 9.95052 45.0627 116.114 87.2892 
20255 5 12.7826 16.0392 11.1348 -2.74111 -11.2076 -16.7757 
20251 5 12.5994 19.887 10.8751 -0.848094 -0.277311 10.2873 
22797 1 10.5866 17.8329 10.6706 3.59145 -1.54001 24.8802 
22804 5 8.85928 16.0465 10.2629 -4.5027 -11.0013 -13.958 
22806 5 9.15709 19.6726 10.6518 26.3781 -12.7186 -11.5824 
20209 6 12.874 15.0323 5.7533 0.477286 -0.364173 1.50346 
20174 8 12.7095 14.4625 7.54514 27.4167 11.0213 -53.8447 
22802 4 7.35344 14.1712 9.46207 -20.8737 9.26664 -29.1756 
22707 1 10.7485 14.2517 10.2767 12.3468 10.6391 1.38557 
20180 3 10.8086 14.0423 7.95232 18.1536 -8.90051 4.82824 
20260 7 13.0324 18.8856 6.99744 0.131325 1.33527 1.2883 
20261 7 12.9162 17.3666 7.33817 -0.523612 10.6502 5.73713 
20401 7 13.4229 15.9899 5.62814 -0.161835 0.312016 -1.28098 
20406 9 10.0189 14.4108 7.4707 -1.2657 2.86364 -2.32974 
20413 7 11.9327 15.1884 5.26927 -0.0685249 -0.0247708 -0.439293 
20222 6 12.7014 18.0477 6.67459 -0.745035 0.706791 -1.01954 
22813 7 7.7456 15.0607 6.62462 -0.0731766 -0.0488849 0.0699858 
22812 7 7.44152 13.8113 7.30537 0.710218 1.45423 6.54349 
17861 7 18.0327 18.1656 5.18632 -0.0415388 -0.0258106 -0.195483 
17849 7 19.1146 19.332 5.5722 -0.0530147 0.152165 -0.564459 
17657 6 18.7692 18.3451 5.88217 -4.84393 -2.64447 15.1133 
20252 5 14.9691 19.7344 10.5394 -8.20284 -13.5144 -17.5665 
20182 5 15.2166 16.0409 10.213 -3.98978 -20.5641 -13.8812 
17622 8 18.5634 18.0799 7.75046 32.276 27.7132 -14.6046 
17854 9 15.9449 18.6012 8.0719 -0.303667 2.00428 -3.26124 
17628 3 16.7563 18.0742 8.25458 4.1152 -9.93579 9.71184 
17624 4 19.3217 16.6826 8.46567 -7.91063 -11.5744 -3.76356 
17629 4 18.9827 19.4332 8.85904 -13.7981 -12.1811 1.63424 
17621 2 19.6951 15.6526 9.54627 46.6102 95.3871 82.9498 
17623 2 19.5501 20.2671 10.0023 53.8643 25.1783 75.0708 
17630 5 21.0316 19.7719 10.2793 12.4202 -2.58029 -15.2533 
17627 5 21.1919 15.89 9.96206 1.16543 -17.8323 -17.0156 
20155 1 16.8424 17.9752 10.6946 1.65346 10.8364 -29.6169 
17626 5 18.7672 15.8963 10.7355 -8.55297 -8.75953 -12.0627 
20171 1 16.7158 14.1373 10.3208 4.54249 5.94652 -63.1047 
17625 4 19.606 14.0957 9.12525 -6.10105 7.84551 -11.9408 
17564 7 21.4906 17.2833 7.58657 -0.572886 1.56109 -1.18526 
17703 5 18.6795 20.0258 11.2014 -15.5677 -12.8067 -21.5922 
17709 7 19.905 20.6273 7.34679 2.91518 4.93626 4.48066 
20259 7 15.568 20.8847 8.4035 12.2298 3.54487 -2.23658 
17526 6 22.4132 17.452 7.70597 -7.63619 -6.68642 17.8852 
17563 7 22.8092 16.6576 7.3521 0.260674 0.348455 -1.93092 
17619 1 22.5682 17.9268 10.3236 11.3054 12.7453 -15.4519 
15250 9 25.4259 16.554 7.3496 3.2038 4.19872 70.3484 
15006 3 25.6058 15.7572 7.92658 -17.1212 -12.2181 55.8643 
15072 4 25.3173 20.4252 8.40544 -13.0049 -7.89397 -2.78988 
15073 4 25.9599 17.9542 9.15621 -15.851 5.93895 -35.1725 
15069 2 25.8295 19.4844 9.52152 47.301 196.298 67.6654 
15075 5 27.2671 19.8707 9.91392 4.82058 -4.30962 -14.8794 
15001 2 25.8934 16.4473 9.39988 31.4728 21.9446 33.0535 
15007 5 27.2951 15.9854 9.7832 -0.572267 -10.4894 -16.0166 
14980 1 29.1857 17.8209 10.1444 -12.8806 -20.5548 14.994 
15074 5 24.8028 19.6389 10.6176 -6.08536 -5.3488 -19.9009 
15079 5 24.8396 16.1163 10.4638 8.38539 -3.61912 0.449062 
12533 7 25.4571 18.3754 7.23091 -0.404786 4.4865 5.98789 
17532 1 22.9834 14.1035 10.1761 9.78913 12.1545 8.94144 
14998 1 28.6373 13.9834 10.0874 19.949 24.7721 13.7452 
12492 6 25.1645 17.9196 6.43544 -1.27106 -1.71639 -0.940161 
12532 7 24.2391 17.8074 6.45162 -0.0706037 0.0110704 -0.223554 
17636 7 24.2982 14.6547 7.77674 3.0916 -4.69324 -4.75556 
17597 6 27.3956 19.7327 6.47718 -16.3379 -1.07076 0.926345 
17635 7 27.0344 19.9354 7.31032 6.29914 1.2048 -2.41898 
17596 6 23.5563 13.9987 7.66239 -11.3682 -1.602 4.76662 
14974 6 28.7308 14.0837 7.53935 -5.85517 -10.9243 7.34648 
17634 7 26.9707 18.9124 6.11254 0.288384 0.569739 -0.149357 
15084 7 28.6931 18.2675 6.90767 0.599151 2.77526 -1.52259 
15012 7 28.1952 14.867 7.30744 1.7841 1.8045 -1.74269 
15044 6 29.2899 17.8272 7.55162 -18.5373 -15.4109 14.1351 
15011 7 29.5706 14.1102 6.99075 5.06232 0.877739 -0.281943 
25461 9 1.63963 21.1191 8.56579 -0.412915 9.03245 -6.04791 
25417 1 4.459 21.7465 10.9217 -16.3597 -19.6067 -9.91293 
24923 5 0.754769 27.5218 10.9484 6.11573 1.62385 -4.66477 
25425 3 1.35108 22.98 8.77836 -10.7502 -8.44379 18.3483 
24927 5 0.559259 23.61 11.1153 15.7692 -1.37155 7.86523 
25426 5 3.10363 23.8017 10.4009 3.64846 -9.22496 -9.37572 
25420 2 1.64879 23.9265 10.0018 35.5203 97.2779 58.9995 
25401 1 4.97038 25.5329 10.7242 12.4797 4.90758 9.16975 
24924 5 3.18735 27.1766 10.4054 -6.27419 -6.1939 -14.1881 
24922 4 1.38256 25.4386 9.75254 -16.4828 10.3686 -16.9411 
24919 2 1.7823 26.9563 9.95451 1.32686 144.206 60.3003 
24921 3 1.55556 27.7248 8.56562 -3.28417 -0.904658 8.40444 
25462 9 1.60156 23.3783 7.96981 -0.0533791 0.119219 1.81059 
22871 5 6.64021 23.6959 10.9095 4.81083 -4.66153 -4.9768 
25451 9 2.36751 27.8615 8.13061 0.0559938 0.481087 1.54506 
22375 5 6.78156 27.3777 11.2762 2.1458 -4.07091 -3.97883 
20355 9 13.7553 21.1037 8.67011 -2.63545 21.3466 -0.799023 
22873 3 7.36095 26.8242 8.94079 -1.58483 -2.9151 23.0848 
22910 9 7.83453 27.1872 8.16884 0.0177863 0.302324 5.19949 
22881 7 10.5673 22.2037 7.78641 0.174912 0.150661 -0.600915 
22880 7 12.0072 21.7432 8.22322 12.0477 4.45596 -4.59243 
22869 3 7.56442 24.0265 8.5961 -0.854907 -1.28418 0.765443 
22842 6 11.0399 21.8185 8.50693 -11.5591 -8.64942 2.7879 
22909 9 7.42422 24.9915 8.72358 -0.316033 9.47312 -0.70863 
22870 4 7.80675 21.6814 9.76784 -9.7463 12.9872 -14.6688 
22781 1 10.8959 21.6885 11.0129 -25.443 -19.734 26.6153 
22868 2 7.76545 27.7412 10.1816 36.9845 97.976 39.0287 
22867 2 7.78902 23.2324 9.92461 53.5413 189.925 73.4437 
22381 7 12.0152 26.341 8.4485 11.0374 9.19167 -1.54525 
20253 3 13.4682 23.4016 8.82795 -29.1157 -27.8553 6.51427 
22380 7 10.8121 26.2531 7.54966 0.0744491 0.10609 0.095986 
22342 6 11.2091 25.8188 8.3988 -19.419 -2.74021 30.1984 
20317 3 13.3219 27.8427 9.08682 -10.0435 -12.9252 -8.24268 
20248 2 13.7696 24.0294 10.2263 7.99259 4.40272 111.228 
20318 4 13.624 25.5447 10.0164 -29.0279 -19.4799 -44.0309 
20315 2 13.7788 27.0543 10.3348 50.9147 -13.9695 83.1506 
22865 1 10.6865 25.3992 10.9226 12.8377 11.4581 31.9256 
22872 5 9.17462 23.6871 10.462 5.34065 -15.5417 -14.3477 
22874 5 9.24947 27.6706 10.5948 6.72314 -9.76796 -9.89494 
20356 9 12.5954 23.6209 8.49206 10.232 3.87846 -9.91917 
25431 7 14.1509 26.52 7.83751 1.0716 4.72197 6.72684 
20323 5 12.8525 23.6161 11.429 1.75431 -7.89211 1.04383 
25430 7 14.093 24.9955 7.86813 1.66676 4.72346 10.3673 
25395 6 14.4016 25.7329 7.27378 -0.139763 0.0923704 -0.154538 
20258 7 15.2294 22.3163 8.12146 1.36559 0.134129 -1.35104 
20223 6 16.0015 21.7513 8.2238 -7.35646 -1.24158 8.93713 
20245 1 16.5342 21.695 10.8038 16.3776 20.4657 42.738 
17698 4 19.4354 21.7483 9.56107 -11.898 -3.71376 -28.5507 
20320 5 15.2214 27.4242 10.856 4.54411 -11.3274 -15.055 
20254 5 15.1801 23.5949 10.561 -15.8562 -11.5834 -20.529 
20329 7 17.2434 26.6466 8.28058 4.02312 3.19478 -3.61468 
20328 7 16.0419 25.8023 7.61998 1.70703 -0.020051 -0.0947148 
17803 9 18.6355 24.4714 8.19816 9.13006 9.24027 -0.546621 
20290 6 16.6573 25.8385 8.42977 -27.3381 -4.73522 7.92262 
17697 3 19.4666 23.9299 8.24968 -7.28136 -15.658 7.04838 
17701 3 18.7572 27.5768 9.07536 -11.3571 -29.5337 -3.48707 
17695 2 19.6311 23.298 9.64847 1.13661 5.27147 79.021 
17696 2 19.6976 27.9701 10.2409 33.7775 100.692 91.1623 
17700 5 20.9899 23.6351 10.1729 -17.2596 -7.54209 -18.9336 
17702 5 21.0953 27.3466 10.1236 7.81764 -13.5922 -20.5554 
17699 5 18.7076 23.7838 10.7613 -3.1833 -4.07505 -1.71113 
20229 1 17.0048 25.6018 10.9426 17.3094 15.3187 -42.4598 
17708 7 20.0702 22.1005 7.0657 -0.242144 1.40617 0.862164 
17670 6 20.1319 21.2549 6.64674 -0.7404 0.851385 -1.34698 
17707 7 20.7868 25.2363 7.6314 4.67213 4.92246 -0.0294212 
17706 7 21.1787 26.5559 8.43819 0.127574 6.50561 6.8618 
17671 6 21.5933 25.7538 7.94146 -0.374165 -4.79977 5.14883 
17804 9 18.1596 28.2261 8.79174 4.30516 -0.377849 -3.03465 
15302 9 22.12 22.0167 7.2663 -10.7624 2.28623 -0.608751 
15082 7 28.9341 21.4367 6.98265 -0.122137 1.90981 -3.04599 
15309 7 26.1711 21.1856 5.56242 -0.0515053 0.35396 -0.579499 
15297 7 25.7773 22.9358 5.36905 0.0246514 0.421827 0.0406819 
15076 3 22.8653 21.7306 7.945 5.1204 -10.2723 6.79834 
15105 6 25.4296 21.9972 5.7434 2.5203 2.79843 8.6969 
15067 1 28.5009 21.8246 10.3102 6.9589 13.5419 31.4562 
17603 1 22.8719 21.8054 10.3091 41.791 30.792 68.0572 
15070 8 24.6898 21.8654 7.53391 8.79464 21.9534 -5.46812 
15157 7 24.761 24.7113 6.5409 0.0949579 1.43279 -2.2248 
17693 1 22.4585 25.6458 10.3024 35.1596 46.7681 74.3716 
15118 6 24.3516 25.0692 5.80024 0.216125 -0.0165603 -0.0794521 
15156 7 23.4675 25.4068 6.08223 0.348013 0.0658585 -0.0161377 
12750 9 28.7793 27.0604 8.02173 -18.1488 -1.29434 -3.56611 
15145 3 25.8709 28.1424 8.32624 -25.073 -9.96136 24.0683 
15077 4 25.2347 23.1977 8.50469 -14.8915 -21.8181 -11.7476 
15146 4 25.5466 25.6818 9.29943 -7.8275 17.7203 -15.7955 
15143 2 25.8227 27.2278 9.63665 33.6154 57.4332 41.3692 
15071 2 25.6377 24.1622 9.58877 42.7242 137.46 70.1404 
15078 5 27.0823 23.775 9.8664 3.40096 -1.58648 -12.1659 
15148 5 27.2019 27.5255 10.2775 11.4309 -13.1782 -15.5634 
15051 1 28.9278 25.6837 10.4438 0.454662 13.0661 47.9845 
15147 5 24.7278 27.7419 10.5663 3.79075 -1.94701 -8.14869 
12524 3 29.1596 26.0649 8.01414 -11.2774 -1.32603 9.03706 
15045 6 29.2043 21.7754 7.82857 -18.507 -10.9672 5.00113 
15251 9 25.5134 27.6474 7.63837 -0.0771142 -0.296835 15.545 
15151 5 24.6677 23.8201 10.7274 -4.956 -8.30375 -15.8156 
25272 7 0.656921 4.6131 16.2481 1.38483 -0.0494702 4.95034 
25198 5 4.5419 2.55475 12.6561 -15.8032 -9.12154 -9.30873 
25195 5 4.3158 -1.09258 12.7632 -1.30882 -3.45695 2.93808 
25511 9 0.282614 1.95549 15.6349 -7.54219 3.39986 -3.37938 
22635 1 6.05896 0.692999 12.8525 -30.3689 -9.53723 -12.6245 
25268 5 2.06322 2.89899 12.9931 0.154163 -12.396 -23.1103 
25258 1 0.250924 4.4912 12.7638 -8.04606 -8.26705 4.17283 
25207 1 0.476342 0.786529 13.0733 11.7526 37.9968 24.4186 
25191 2 3.47612 3.03985 13.5769 18.5516 67.8746 57.5463 
25263 4 3.57926 4.53329 13.9916 -28.5154 3.67458 -38.7242 
25197 4 3.26023 2.0922 14.7531 -11.3201 -16.5074 -1.10117 
25192 4 3.04502 -0.482259 14.848 -12.6874 -15.5657 -5.34701 
25196 3 0.784839 1.06617 15.3587 9.81344 -12.2558 8.56724 
25190 8 2.56783 0.848402 15.8515 30.529 28.346 46.1741 
25240 6 3.3156 0.709221 17.6543 -0.271285 -8.92803 49.2302 
25519 7 3.21336 -0.199057 18.19 1.25922 0.632813 7.13098 
25507 7 2.93177 1.36302 18.4287 1.326 -3.02368 3.8997 
25308 6 0.363478 4.33786 15.354 -28.0722 -10.2529 10.0561 
25270 6 1.55897 4.96504 18.0231 -41.6455 9.56458 -18.7011 
25310 7 2.14681 5.69355 18.422 4.58819 7.89782 5.66097 
22655 1 6.37544 4.67075 12.8239 4.38782 21.9228 5.83686 
25194 5 1.89442 -1.62182 13.1754 -0.51459 -13.5543 -19.7585 
25189 2 3.31878 -1.5892 13.8009 48.1618 53.837 91.3929 
25309 7 2.08974 4.63365 17.2749 13.2646 -3.82092 -1.29915 
22683 6 6.0348 0.187382 15.3271 -18.2349 1.52725 -1.42123 
22644 3 6.89487 4.60424 15.2694 -3.26925 -13.723 18.3692 
22651 7 5.78488 -0.628021 15.843 4.11927 8.33137 -2.35471 
22650 7 6.66645 0.675443 15.9398 6.26115 1.85601 2.20209 
22959 9 6.23517 4.4351 16.0539 -36.9092 3.69871 -5.43099 
22649 6 3.91153 4.33007 16.7346 0.225255 -3.38899 -18.7069 
22684 7 3.84065 3.63099 16.0766 -0.415325 -1.43996 7.83168 
22685 7 3.9135 5.05268 16.0751 -0.884324 2.45627 14.2603 
22687 7 6.12332 0.281183 18.6919 6.39168 8.20074 -6.69112 
22760 7 5.58644 4.85932 18.3537 3.3307 1.59506 1.02611 
20062 7 6.13989 2.51162 17.9097 -7.84721 -5.44628 -1.82418 
25312 7 0.122656 4.80502 18.9507 4.69386 -2.48727 -4.06402 
20023 6 6.7119 1.80833 17.8476 -39.9844 -29.7085 -20.0975 
12509 6 29.6996 23.5809 19.0955 -16.8124 -6.09084 8.50115 
25472 9 2.4848 3.31043 19.1977 0.0553474 4.65604 114.148 
20063 7 13.8004 -1.10139 18.0083 -0.466904 0.741264 -3.5449 
20061 7 7.30799 2.02653 18.5174 -4.29006 -1.24826 -4.83004 
20022 6 13.3889 -1.02679 17.1592 -18.9869 -13.1413 -7.17974 
20101 7 8.27611 0.454896 17.6159 1.94525 1.61221 -1.18564 
22931 9 9.7007 -1.01806 15.7159 -0.809539 2.22397 -51.5827 
22643 5 10.3472 2.57234 12.1955 -2.1472 -4.11735 -8.63192 
20083 1 12.0539 4.57824 12.2941 23.8956 14.7672 24.4122 
22642 5 7.78438 2.32799 12.6693 -0.351077 -5.22907 -18.7775 
22572 5 10.3915 -1.19034 12.4814 -1.23084 -7.21385 -12.8262 
22647 5 8.01803 -1.15376 13.3887 6.20162 -13.9374 -16.5108 
20029 1 12.4935 0.818447 12.5759 1.07406 10.9073 -10.6341 
20095 5 13.8672 2.81253 13.0198 -11.2673 -10.9313 -13.4537 
22637 2 9.23854 2.21284 13.1776 47.362 -27.0151 72.7283 
22565 2 9.47766 -0.798971 13.6553 40.6801 59.5584 52.7901 
22641 4 9.6135 0.790931 13.697 -28.3394 -14.9134 -28.3411 
22640 4 9.10375 3.21619 14.2882 -10.7717 -25.8936 -15.0752 
20060 6 12.1253 0.974016 15.0774 -6.89974 -6.95643 4.95452 
20025 7 11.1936 0.570345 15.1076 21.3553 10.6654 -0.910389 
22638 8 8.73376 4.46289 15.4444 -64.2003 4.5815 -89.3411 
20024 7 12.596 0.465538 15.8077 3.26172 6.80015 3.91103 
22688 6 9.4002 4.45174 17.208 -8.21766 -10.1451 -22.8465 
20130 6 8.84555 -0.229521 17.2644 2.26482 -1.2565 -25.3592 
20016 5 13.8732 -1.10957 13.0216 4.34539 -14.414 -20.0621 
20100 7 8.99723 -0.834963 17.9392 -3.97515 -5.81306 15.3074 
22967 7 9.38868 5.15508 17.9405 -3.58113 -2.21003 -28.4829 
22571 3 10.1838 -1.30992 14.9379 -26.8702 -20.6703 -20.0068 
20135 7 11.8322 -0.210217 18.5316 4.68532 -2.03506 -0.395056 
20134 7 10.6733 0.649102 18.2738 9.30748 1.02634 4.56602 
22955 7 9.44155 3.49591 17.7327 -1.00421 -0.457335 -16.1972 
20098 7 11.1751 5.1453 18.3847 1.48303 2.3655 0.45513 
20096 6 11.405 0.513033 18.9675 -15.1952 -8.27941 1.4611 
20064 7 14.1121 -1.1441 16.523 1.83198 0.787695 -3.93952 
20379 9 14.6062 2.25727 15.5862 2.79282 2.17411 -5.21056 
20378 9 15.4007 0.0444891 14.8487 1.62691 74.774 28.3431 
20012 2 15.2359 -1.61828 13.5115 12.3121 -33.6231 72.0942 
17469 5 19.9364 -1.30131 13.4326 -5.82676 -11.1349 -11.629 
20017 5 16.2815 -1.21496 12.5395 11.5341 -0.905586 -1.09754 
20020 5 16.2894 2.4578 12.6312 -8.04336 -5.1282 -11.271 
17477 1 18.4308 4.50707 12.7514 51.3991 43.4537 57.0736 
17458 1 18.218 0.637135 12.871 57.0483 43.0617 17.8874 
17464 5 19.9587 2.61017 13.0923 -5.40506 -12.9657 -13.9422 
20014 3 15.3481 -0.927596 14.9324 -34.3374 -10.5159 37.3238 
20013 2 15.2355 2.86552 13.6686 25.3542 -12.8164 60.4835 
20089 4 15.4847 4.41259 13.8828 -15.7958 -4.47041 -23.1181 
17460 2 21.2934 2.30374 13.8302 63.2819 112.635 67.2107 
17386 2 21.2555 -0.760946 14.0881 58.0449 111.893 41.0148 
20019 3 15.3385 2.01407 14.9708 -10.5148 -13.5901 9.40685 
17466 6 17.998 0.619135 15.4964 -11.5207 -11.2662 20.8136 
17494 7 17.1993 1.15369 15.3698 13.9991 4.96333 -5.40522 
17493 7 18.6096 1.2287 16.0451 6.43312 10.0059 4.0971 
17471 6 19.2703 2.47981 17.4488 -19.6538 -5.0071 -15.2252 
17510 7 19.9132 1.81424 17.6264 1.45171 -3.10142 -0.860227 
17509 7 19.3955 3.03387 18.1749 4.97547 -4.24806 -4.36212 
17463 4 21.2166 0.803669 14.1626 -13.6004 1.22254 -28.1507 
17508 6 18.1632 4.49294 15.3161 -14.9884 -7.91706 16.4244 
14959 7 20.9347 -0.497026 18.4597 2.75172 7.44901 7.04582 
14960 7 21.4702 0.90766 18.3221 -2.37593 7.44969 6.05703 
17391 3 21.7603 -1.0987 15.5028 -19.0407 -38.6918 -9.99532 
17825 9 21.5024 -0.402917 16.1135 -3.11868 5.36447 9.16381 
17462 3 21.352 3.17809 15.112 -29.0572 -26.1717 8.47431 
14918 6 21.4665 0.0696577 17.8504 5.77255 -8.95933 6.76667 
17826 9 20.8577 2.78664 15.8076 -0.251618 -2.33338 -5.09861 
17582 7 18.1915 4.94684 18.0117 0.786211 3.30524 -10.8451 
17472 7 18.5491 4.15758 16.1469 3.26935 7.0348 -0.401645 
17473 7 17.2647 4.09789 15.3529 7.55958 2.66195 -2.56948 
17827 9 21.5229 5.14831 15.3176 1.44761 24.5672 6.80133 
17474 7 17.0737 -1.74143 15.3748 4.94554 -0.224821 -6.88414 
17544 6 18.1823 4.9793 18.926 -4.29062 -10.8076 3.35773 
17583 7 19.0355 5.47139 19.1713 14.9329 6.17314 -4.81543 
20346 7 12.9833 22.8819 19.248 13.8954 1.77225 -1.35738 
17457 7 16.6234 -0.288214 19.0064 3.96372 -2.54166 -3.38949 
24949 7 1.06821 24.2596 19.2006 24.0148 13.9726 -1.93342 
12753 9 29.7705 27.6492 18.4846 3.16896 5.051 -0.282878 
17503 6 17.0284 0.556421 19.2236 -17.7256 -7.77805 11.4634 
20366 9 15.0379 3.45105 18.9158 0.300547 -0.469144 -22.5535 
14905 7 22.749 5.51736 18.7427 5.2923 0.782554 -3.07998 
12293 7 29.2088 -0.00112632 16.0133 7.92985 -2.81497 -1.99865 
14951 6 23.4402 4.88191 18.8693 -24.6786 -10.1347 -2.05623 
15310 7 26.7084 -0.60963 16.8962 -3.97471 -10.7092 -28.8711 
14904 7 23.975 5.11541 18.1539 -3.2867 0.843973 -7.23257 
17392 5 22.3788 -1.113 13.0479 12.7976 0.299137 7.28382 