ITEM: TIMESTEP
0
ITEM: NUMBER OF ATOMS
25520
ITEM: BOX BOUNDS pp pp ff
-3.8959205201285124e-01 6.0088135642019459e+01
-1.9452389155355383e+00 5.9115524189537531e+01
-1.2206056431032383e+01 1.1390111600702880e+02
ITEM: ATOMS id type x y z v_stressx v_stressy v_stressz 
25292 7 5.89857 3.03966 7.5916 -2.47669 -8.56286 -6.34147 
25293 7 5.98077 1.53035 7.7064 -1.89918 -5.93985 -1.99478 
25252 6 5.35811 2.25094 7.51796 -6.32629 -3.20581 0.294694 
25287 5 0.61597 0.755495 10.7564 7.96515 -1.57137 4.87942 
25283 5 2.94291 4.2301 9.842 11.1814 6.52115 -13.3193 
25281 4 1.3887 2.44216 9.07367 -12.8447 1.89061 -17.1276 
25280 4 1.07853 5.00258 8.46007 -12.6756 -8.44464 -6.76251 
25277 2 1.45655 3.94107 9.49571 51.1232 37.0236 81.746 
25215 5 2.99957 0.588718 9.72621 -14.479 -9.88319 -11.7126 
25209 2 1.59287 0.935181 9.44522 6.49622 -58.2128 74.1284 
25188 1 4.8243 2.58953 9.97468 5.26458 1.46022 14.5239 
25214 3 0.796635 0.0137284 8.44439 -1.98082 -4.32281 2.29284 
25282 5 0.520916 4.37471 10.6565 -15.076 -14.4291 -19.6439 
25458 9 1.40812 -0.435335 7.83607 0.0156077 2.06647 1.68332 
25206 1 4.52732 -1.17961 10.115 34.8128 37.9137 20.697 
22660 5 6.52822 0.875659 10.2203 -0.968863 -5.25305 -15.9174 
22735 5 6.623 4.87348 10.5536 2.44325 -9.11059 -15.5286 
25505 7 1.83983 5.65447 5.50835 -0.0557288 -0.159347 -0.296934 
22662 3 7.17647 4.29529 8.22411 -11.9176 -23.0454 -17.9743 
22658 3 7.30314 0.346889 7.89736 -14.8822 -15.0552 -11.2233 
22905 9 7.65252 -0.485879 7.46068 0.0199153 -0.419537 -4.48826 
22906 9 7.50322 4.57024 7.35908 -2.77981 4.29054 9.67929 
20115 7 11.1372 2.292 6.49758 0.438461 -0.010313 -1.16368 
22656 2 7.7059 0.365729 9.40584 21.8126 73.653 61.1334 
20116 7 12.1136 2.88755 7.40659 19.5573 6.62804 2.60961 
20078 6 11.1398 2.86581 7.23657 -15.7785 -11.5094 1.87176 
20106 3 13.741 4.72985 7.46261 -15.4676 -10.9343 42.4526 
22657 2 7.60419 5.1024 9.41016 53.8177 -16.1384 22.249 
20036 3 13.619 0.47741 7.57109 -16.2926 -19.4027 16.5932 
20107 4 13.6664 2.6833 8.8298 -17.6538 -13.9746 -34.2964 
20104 2 13.8784 4.18168 8.97251 30.9935 36.0172 95.3391 
20031 2 13.7132 1.1448 8.96008 61.0366 163.475 13.9738 
20108 5 12.6966 4.70757 9.81807 14.7216 12.1104 1.35738 
20112 5 12.4932 0.846951 9.91178 11.0489 -0.336144 8.19803 
22654 1 10.4859 2.78478 9.68506 10.8616 9.59586 11.3078 
22661 5 9.03983 1.11007 9.56315 -7.40975 -6.41381 -16.1814 
22663 5 9.10858 4.7108 9.73761 4.51684 -12.7353 -15.5027 
22563 1 10.886 -1.13469 10.1589 0.514071 -0.905182 -2.45003 
22659 4 7.7627 -1.12896 9.68153 -9.18404 -34.5392 -34.5573 
22629 6 11.3751 -1.065 7.76545 -16.7281 5.15542 2.64427 
22669 7 11.9249 -0.207968 7.44815 1.28021 5.19034 -1.31613 
20352 9 13.8605 1.22514 6.87465 0.673104 12.5037 14.6479 
20189 7 14.2777 3.18994 6.51456 0.229674 13.4885 8.34078 
20353 9 14.543 5.23857 7.22704 7.69848 13.1874 16.7824 
20148 6 14.5671 2.45013 5.87332 0.146232 0.058641 0.100872 
22740 7 11.2703 5.5881 6.8279 3.26689 1.47131 -1.20611 
22738 7 8.76742 5.41578 5.90114 -0.700845 0.68137 -1.37868 
22701 6 7.85394 5.37142 5.69312 0.514524 -0.253829 7.93986 
22739 7 7.886 4.86164 4.87022 -0.0113642 0.0200805 0.00846051 
22670 7 11.9327 -1.89861 7.72342 1.03238 1.60374 -5.30931 
20188 7 15.4435 2.20345 6.22553 0.806251 -0.142547 0.0696768 
20037 5 15.0057 0.565552 9.66218 -0.836683 -6.80278 -12.9896 
20118 7 17.8719 2.63796 7.70159 5.63248 -0.359562 -2.89395 
20117 7 17.6995 1.17882 7.44002 2.98564 2.50235 -4.69327 
17799 9 19.455 -0.241526 7.33338 0.274327 6.55237 17.9308 
20077 6 17.1284 2.01775 7.60787 -23.073 2.60374 26.7532 
17484 3 19.536 4.02271 8.03155 -4.12799 -2.56429 -2.45646 
20109 5 15.1822 4.68195 9.53593 -5.69438 -7.23921 -17.6789 
17480 3 19.3808 0.510653 7.95906 -16.2826 -31.7378 11.0201 
17478 2 19.7385 0.13463 9.405 32.201 33.627 46.3255 
17479 2 19.7269 4.90401 9.32133 45.5209 113.112 62.2486 
17485 5 21.0972 4.45706 9.83859 4.83926 -15.9636 -17.3081 
17483 5 21.125 0.57616 9.92672 5.382 -9.8079 -12.9978 
17482 5 18.7273 0.612358 10.4453 0.838112 -3.69167 -7.07033 
17560 5 18.5746 4.39351 10.2378 -0.794952 1.88913 -11.234 
20011 1 16.7883 2.43064 10.1919 50.7698 45.8553 49.231 
20028 1 16.5417 -1.33752 10.1131 23.6422 17.0898 9.29942 
17481 4 19.613 -1.37684 9.30614 -12.3142 -19.5098 -36.9672 
17800 9 20.2785 3.41394 7.96437 0.284755 -2.89838 -5.45314 
20002 6 16.2002 -1.21507 7.53432 -10.3277 -7.38384 13.862 
20044 7 15.5857 -0.449442 7.68688 4.26443 8.49975 -3.0373 
20043 7 16.3516 -1.12082 6.60323 0.279145 0.19642 -0.839085 
17377 6 19.8786 -1.6773 6.3322 0.251035 -0.1367 -0.0160919 
17415 7 20.5742 -1.92657 6.98281 2.81824 2.45449 2.09583 
14864 7 23.6314 3.83266 7.75133 5.56455 -4.7119 -1.49439 
14825 6 23.2988 2.969 7.82153 -9.25083 -3.76445 1.49817 
14863 7 24.1611 2.53617 7.90018 3.85659 -1.35708 -0.64707 
17476 1 22.5994 2.5974 10.2549 -65.468 -40.8515 60.4237 
14928 3 25.5679 4.59148 8.20809 -31.05 -49.9567 -47.2272 
15246 9 24.7065 0.00657495 8.04332 7.93624 10.7287 19.893 
14856 3 25.5405 0.383335 8.16649 -12.4876 -14.6714 11.039 
14929 4 25.6618 2.47021 9.27814 -17.4395 -35.0744 -33.6179 
14851 2 25.7726 0.935136 9.6021 18.9612 -189.972 74.0459 
14926 2 25.8313 3.99121 9.61155 27.023 145.05 88.7652 
14857 5 27.172 0.513951 10.0212 -9.468 -11.8849 -20.8485 
14931 5 27.2703 4.30837 10.1061 -28.1878 -11.2548 -18.1358 
14832 1 28.9014 2.41808 10.4207 14.6229 11.9687 48.2951 
14930 5 24.8007 4.37565 10.6576 12.6198 -4.31311 -13.158 
14934 5 24.7275 0.511689 10.6576 4.51037 -3.989 -1.3367 
17384 1 22.8636 -1.16741 10.5973 -0.553758 3.96532 5.15883 
14848 1 28.7231 -1.43222 10.2624 14.204 18.2588 -17.9327 
14898 6 29.1786 2.45721 7.88738 -13.6438 -15.1647 6.41631 
15247 9 26.3681 4.66526 7.72718 -1.62224 -1.09446 -15.3114 
14826 6 28.1456 -1.3901 7.71182 1.46283 -3.42611 27.0795 
14861 7 27.5228 -0.59177 7.7367 4.97087 5.85255 -2.32147 
14862 7 28.7608 -1.17174 6.9734 0.154895 0.0375875 -0.068557 
17565 7 23.8543 5.62398 7.62904 12.4876 3.71555 -1.58381 
17491 7 23.3409 -0.830267 7.25909 0.0958932 0.0681693 -0.443049 
12347 6 29.4782 5.3719 8.00631 -15.1735 -7.12999 4.26957 
14939 7 29.2544 3.33895 7.63004 0.444098 -0.932862 -1.22944 
17492 7 24.1978 -1.77871 8.08715 8.14877 2.36209 -6.30268 
17450 6 23.2929 -1.42611 8.02021 -21.5112 -6.73821 18.9188 
25291 7 5.22591 6.53661 7.32751 1.16436 1.65157 -3.20724 
25290 7 3.82687 6.55555 6.86919 -0.717318 1.66532 -4.48441 
25253 6 4.33607 6.71227 7.63615 -9.45021 -11.5907 2.18059 
25517 7 1.84279 7.29014 5.50902 -0.027854 -0.058114 -0.554945 
25313 6 1.21101 6.45671 5.78137 6.14937 -5.32339 30.5501 
25362 7 1.19888 10.608 6.31952 -0.0213176 -0.0170471 -0.0276863 
25275 1 4.36027 6.50413 10.1833 4.05879 12.6623 12.7045 
25278 8 0.639374 6.49188 7.63496 52.7736 31.8463 9.22806 
22958 9 3.89074 10.3239 7.2783 -3.51297 1.47453 0.214574 
22732 3 4.70032 10.3548 7.96195 2.54192 -12.5634 13.7043 
25359 5 0.701437 8.49354 11.0939 -10.0115 -10.2764 -17.2264 
25356 5 3.08021 12.146 10.2169 10.049 0.100677 -12.6991 
25355 5 0.535314 12.2845 10.6518 -2.43117 -5.2023 -6.90365 
25354 4 1.48185 10.2856 9.54639 -13.4442 14.1538 -26.4074 
25353 3 1.39194 12.6945 8.41831 -15.4552 -8.30496 4.2703 
25351 2 1.63225 11.8296 9.72046 40.1668 49.2634 65.8456 
25286 5 2.93236 8.28049 10.0288 -5.54079 -15.8422 -19.5945 
25285 4 0.892127 7.85648 8.74192 -20.6786 -18.4132 -4.64033 
25279 2 1.49492 8.71367 9.83417 15.7967 97.562 77.9207 
25259 1 4.86194 10.2149 10.3927 6.65115 9.23081 39.4099 
25327 6 1.60703 9.7444 6.34125 2.41282 1.42309 -0.692725 
25363 7 1.38635 9.50649 7.2315 0.411791 2.60993 1.30544 
22807 5 6.5607 12.2849 10.8694 -15.7933 -14.3279 -18.1741 
22730 5 6.65234 8.34528 10.5398 -4.44517 -14.5841 -13.6477 
22726 8 6.48614 10.4372 7.49213 -1.8902 17.6953 -26.5883 
22761 6 7.05704 10.8316 5.66761 1.79913 2.555 6.88947 
22733 4 6.9844 11.7221 8.61372 -10.7664 -12.6171 -2.32039 
22728 4 7.23016 9.05362 8.29312 -12.8338 -20.2039 -5.71191 
22953 7 7.91026 10.1976 5.3838 -0.0666133 0.0988881 -0.653657 
22965 7 7.33207 11.8331 5.45166 -0.0495417 0.140814 -0.278186 
22741 7 11.5 7.01103 7.05421 2.59 -0.047246 -1.61105 
22700 6 10.8104 6.36788 7.23855 -15.9395 -1.9571 18.8237 
22636 1 10.9188 6.69179 9.82281 3.94058 9.14978 12.257 
22729 4 7.48133 6.61374 9.11192 -11.0954 -8.29134 -27.5716 
22668 7 10.5831 8.59932 7.42923 1.87629 4.29547 -3.32026 
22725 2 7.70374 8.13304 9.39568 26.7172 30.9768 97.506 
22727 2 7.53968 12.6129 9.75953 16.0501 131.821 78.9266 
22630 6 10.7174 9.56513 7.55044 -8.11811 0.841167 5.55704 
22667 7 11.6785 9.56 7.58776 1.25475 0.707781 -1.40006 
20110 3 13.3722 8.00482 7.87861 -10.801 -0.943795 -3.21075 
20176 4 13.3404 12.979 8.33811 -6.54525 -6.95293 -3.99302 
20177 4 13.5478 10.5013 8.95979 -6.11392 -0.252774 -16.0404 
20173 2 13.7057 11.9908 9.40771 32.7665 -5.81721 75.545 
20105 2 13.7244 8.93675 9.12343 -2.76104 5.78728 83.8449 
20178 5 12.5598 12.2564 10.4158 -7.77025 -12.2608 -23.4795 
20183 5 12.8988 8.51128 10.3587 -3.73098 -11.1483 -7.85564 
22734 5 8.97942 12.4092 10.1072 -12.2317 -12.3044 -17.5216 
22723 1 10.5486 10.4168 9.97488 -3.22918 4.0592 10.0276 
22731 5 9.11607 8.33188 9.85191 -15.3189 -24.2411 -22.0573 
20354 9 13.8366 7.1662 8.02076 -1.23082 -12.3841 -25.6576 
17489 7 15.3685 7.53149 7.27379 -6.22965 -2.292 -3.80942 
17490 7 16.4114 7.08597 6.51817 -0.225786 0.0326633 -0.312347 
17451 6 15.9423 6.78743 7.29642 -18.5643 -17.0586 17.5554 
17555 4 19.5148 6.40419 9.24816 -10.6062 2.48028 -18.6392 
20102 1 16.4765 6.46221 9.86905 10.828 0.241896 19.5562 
20179 5 15.0791 12.3713 9.86379 2.72569 3.79197 -11.7953 
20111 5 15.0953 8.51182 9.52882 -26.2001 -13.6765 -15.0426 
17802 9 19.4832 11.878 7.51898 -0.109648 -0.10138 0.158463 
17554 3 19.6317 8.68088 7.9737 -1.82573 -5.27485 6.21002 
17801 9 19.3812 9.57046 8.10065 0.584606 12.1197 6.24485 
17558 3 19.3121 11.5602 8.35726 -3.96105 -1.93153 -0.0147017 
17552 2 19.7279 7.97853 9.40881 24.1021 57.2757 60.1034 
17553 2 19.7446 12.5897 9.5152 41.4047 42.2368 68.9076 
17559 5 21.2085 12.1329 9.83297 6.89004 -0.396498 -11.415 
17557 5 21.1128 8.33065 9.93016 0.861333 -11.4463 -16.3138 
17556 5 18.49 8.44005 10.194 12.8038 -3.90394 -7.61284 
17631 5 18.754 12.2185 10.6826 2.41205 -5.35347 -4.28039 
20084 1 16.8199 10.2664 10.3615 -11.4598 -4.47219 -0.289149 
17566 7 22.7737 6.49197 7.09029 0.0932125 0.0179047 0.0499462 
17525 6 23.2369 6.30614 7.97014 -29.7886 -5.77587 17.0246 
15249 9 26.4199 12.3989 7.50271 0.841826 0.684452 0.253898 
14924 1 28.8784 6.30371 10.2599 25.0925 20.0304 5.94077 
17459 1 22.8153 6.36449 10.4136 -83.5477 -68.4593 33.0708 
17550 1 22.6813 10.1773 10.109 18.924 17.6746 9.38672 
15248 9 25.0074 7.30471 8.25379 6.70507 8.85139 8.81446 
15002 3 25.5553 12.1132 7.86039 -4.7703 -8.75003 8.88921 
14932 3 25.8534 7.69566 8.37038 -4.56704 -4.16784 1.30463 
15003 4 25.6929 10.0578 9.40228 -8.77194 -5.83369 -23.7899 
15000 2 25.8234 11.5586 9.33827 27.9451 102.181 73.4613 
14927 2 25.9265 8.52626 9.67582 38.6287 66.3399 76.1325 
15005 5 27.2586 12.0307 9.65026 -1.38092 -12.5661 -17.3551 
14933 5 27.3368 8.19806 10.2714 9.44197 -13.9706 -18.1836 
15004 5 24.794 12.1885 10.2281 1.38346 3.37144 -13.2282 
14907 1 29.0423 10.186 10.3202 23.6264 18.327 22.703 
15008 5 24.7476 8.17989 10.6591 16.1329 -0.151947 -2.95734 
14899 6 29.4402 9.94521 7.67407 -3.2004 0.0732849 5.44323 
17637 7 24.0129 13.1402 7.48134 1.60685 0.643883 -0.20971 
25427 5 0.471403 16.2254 10.9577 6.21028 -3.54361 -4.60393 
25424 5 3.05777 19.7432 10.2643 -14.9312 -6.25137 -9.73746 
25423 5 0.62854 19.9386 10.7649 3.99263 -4.18922 -10.6548 
25422 4 1.53223 17.8586 9.5283 -9.59688 7.20703 -14.2945 
25421 3 1.35286 20.1653 8.46116 -3.20828 -2.57295 -0.103779 
25419 2 1.68921 19.4163 9.80763 -41.7897 139.366 65.6515 
25358 5 3.0433 15.9649 10.3935 6.24008 -1.00637 -11.2806 
25352 2 1.62447 16.359 9.9389 56.138 1.75762 35.3754 
25333 1 4.76049 17.9652 10.8964 -5.12237 13.1587 -8.51603 
25357 3 1.27516 15.4524 8.77037 -12.2721 -17.3266 18.4509 
25460 9 1.6173 15.8283 7.87293 0.100964 0.357858 4.23983 
25349 1 4.58657 14.1062 10.6957 6.82697 15.9063 -10.6754 
22803 5 6.49129 16.0975 10.8756 0.915411 -1.0958 3.53858 
22875 5 6.46084 20.071 11.1158 20.2376 8.39529 11.931 
25459 9 1.48999 13.6574 8.56205 -0.999384 5.05985 -4.10977 
22801 3 7.03055 16.5942 8.55987 -2.09178 -6.87518 4.33486 
2179 7 -0.387305 20.8468 8.22815 14.3504 2.2012 -6.43126 
22805 3 7.32975 19.3599 8.91011 -8.23404 -8.5131 26.0754 
22908 9 7.54595 19.9046 8.12021 0.00304912 0.257386 6.55407 
22774 6 7.84223 14.1301 6.46407 2.09496 1.32141 1.86133 
22907 9 7.21638 17.5067 8.66763 -0.166813 20.2178 1.57579 
22800 2 7.69826 20.1918 10.1825 70.8024 56.8451 36.1808 
22810 7 9.52718 17.6319 7.67339 -2.05251 0.920198 -1.99627 
22775 6 10.3724 17.5576 8.1234 -18.0572 -8.85058 6.33956 
22811 7 11.0269 17.744 7.42304 6.06701 1.00194 -1.33386 
20249 3 13.6146 20.1923 8.5115 -17.0224 -15.6755 19.8413 
22799 2 7.50164 15.6895 9.76752 0.1021 20.5111 67.192 
20181 4 13.1648 15.598 8.7498 -9.56395 -31.9343 -11.5016 
20250 4 13.59 17.8559 9.69511 -13.6455 6.67258 -27.6129 
20247 2 13.6446 19.4223 9.89672 2.01674 27.7149 67.6995 
20175 2 13.7411 16.3389 9.95052 43.8392 115.857 89.3723 
20255 5 12.7826 16.0392 11.1348 -2.53445 -11.4475 -16.9033 
20251 5 12.5994 19.887 10.8751 -0.679604 -0.123431 10.3711 
22797 1 10.5866 17.8329 10.6706 3.44866 -1.47215 26.3097 
22804 5 8.85928 16.0465 10.2629 -4.44633 -11.064 -14.0585 
22806 5 9.15709 19.6726 10.6518 26.4301 -12.3072 -11.3258 
20209 6 12.874 15.0323 5.7533 0.488413 -0.350589 1.53435 
20174 8 12.7095 14.4625 7.54514 27.2613 10.8553 -54.4938 
22802 4 7.35344 14.1712 9.46207 -20.5787 9.68108 -27.8166 
22707 1 10.7485 14.2517 10.2767 11.0548 10.3892 -40.3267 
20180 3 10.8086 14.0423 7.95232 18.1809 -8.7998 5.0459 
20260 7 13.0324 18.8856 6.99744 0.11928 1.3241 1.23269 
20261 7 12.9162 17.3666 7.33817 -0.591005 10.5522 5.36632 
20401 7 13.4229 15.9899 5.62814 -0.163679 0.311478 -1.28474 
20406 9 10.0189 14.4108 7.4707 -1.27924 2.82625 -2.41988 
20413 7 11.9327 15.1884 5.26927 -0.068709 -0.0249155 -0.439526 
20222 6 12.7014 18.0477 6.67459 -0.731967 0.729413 -0.916458 
22813 7 7.7456 15.0607 6.62462 -0.0749947 -0.0521571 0.0674362 
22812 7 7.44152 13.8113 7.30537 0.68596 1.40154 6.56759 
17861 7 18.0327 18.1656 5.18632 -0.0416102 -0.0258574 -0.195259 
17849 7 19.1146 19.332 5.5722 -0.0534885 0.152376 -0.565473 
17657 6 18.7692 18.3451 5.88217 -4.81745 -2.63511 15.261 
20252 5 14.9691 19.7344 10.5394 -8.38357 -13.4061 -18.1127 
20182 5 15.2166 16.0409 10.213 -3.79419 -20.5421 -14.5212 
17622 8 18.5634 18.0799 7.75046 32.0994 27.8061 -15.2106 
17854 9 15.9449 18.6012 8.0719 -0.353897 2.00641 -3.36844 
17628 3 16.7563 18.0742 8.25458 4.19007 -9.9456 9.86035 
17624 4 19.3217 16.6826 8.46567 -7.7357 -11.5411 -3.55894 
17629 4 18.9827 19.4332 8.85904 -13.577 -12.1819 1.43902 
17621 2 19.6951 15.6526 9.54627 45.7013 94.8027 84.3465 
17623 2 19.5501 20.2671 10.0023 52.3621 23.7558 76.9798 
17630 5 21.0316 19.7719 10.2793 12.3709 -2.37795 -16.084 
17627 5 21.1919 15.89 9.96206 1.14157 -17.6811 -17.7525 
20155 1 16.8424 17.9752 10.6946 2.28486 10.5861 -11.1617 
17626 5 18.7672 15.8963 10.7355 -8.58325 -8.85622 -13.5769 
20171 1 16.7158 14.1373 10.3208 5.01814 6.19305 -18.8568 
17625 4 19.606 14.0957 9.12525 -5.92179 7.94825 -11.8007 
17564 7 21.4906 17.2833 7.58657 -0.61344 1.54662 -1.38834 
17703 5 18.6795 20.0258 11.2014 -15.1482 -12.1086 -21.6677 
17709 7 19.905 20.6273 7.34679 2.86204 4.88495 4.19111 
20259 7 15.568 20.8847 8.4035 12.1104 3.46734 -2.46397 
17526 6 22.4132 17.452 7.70597 -7.44925 -6.57127 18.6792 
17563 7 22.8092 16.6576 7.3521 0.238447 0.343227 -2.02925 
17619 1 22.5682 17.9268 10.3236 11.6287 12.6281 4.91479 
15250 9 25.4259 16.554 7.3496 3.19779 4.15579 70.4285 
15006 3 25.6058 15.7572 7.92658 -17.0405 -12.0902 55.6049 
15072 4 25.3173 20.4252 8.40544 -12.7426 -7.73986 -2.73473 
15073 4 25.9599 17.9542 9.15621 -15.041 6.30184 -34.3502 
15069 2 25.8295 19.4844 9.52152 45.0028 195.58 66.6815 
15075 5 27.2671 19.8707 9.91392 5.08724 -4.01408 -14.6862 
15001 2 25.8934 16.4473 9.39988 29.6571 21.4649 31.9795 
15007 5 27.2951 15.9854 9.7832 -0.369605 -10.3214 -15.9163 
14980 1 29.1857 17.8209 10.1444 -12.8177 -20.7656 16.4995 
15074 5 24.8028 19.6389 10.6176 -5.60277 -5.17372 -19.6485 
15079 5 24.8396 16.1163 10.4638 8.9495 -3.40822 0.483199 
12533 7 25.4571 18.3754 7.23091 -0.437419 4.36657 5.98863 
17532 1 22.9834 14.1035 10.1761 9.9144 11.9054 10.27 
14998 1 28.6373 13.9834 10.0874 19.9507 24.6277 13.7056 
12492 6 25.1645 17.9196 6.43544 -1.26502 -1.69756 -0.929856 
12532 7 24.2391 17.8074 6.45162 -0.0718928 0.00772932 -0.23026 
17636 7 24.2982 14.6547 7.77674 3.08952 -4.76883 -4.70239 
17597 6 27.3956 19.7327 6.47718 -16.2322 -0.925993 1.13732 
17635 7 27.0344 19.9354 7.31032 6.26779 1.11671 -2.48985 
17596 6 23.5563 13.9987 7.66239 -11.3549 -1.51163 4.80662 
14974 6 28.7308 14.0837 7.53935 -5.59019 -10.8057 7.63022 
17634 7 26.9707 18.9124 6.11254 0.286466 0.566828 -0.152552 
15084 7 28.6931 18.2675 6.90767 0.574564 2.75796 -1.55456 
15012 7 28.1952 14.867 7.30744 1.75636 1.79119 -1.76132 
15044 6 29.2899 17.8272 7.55162 -18.2897 -15.1371 14.8729 
15011 7 29.5706 14.1102 6.99075 5.02773 0.864747 -0.305372 
25461 9 1.63963 21.1191 8.56579 -0.46076 9.00295 -6.02296 
25417 1 4.459 21.7465 10.9217 -17.1094 -20.1917 -18.5297 
24923 5 0.754769 27.5218 10.9484 6.08645 2.03234 -1.92408 
25425 3 1.35108 22.98 8.77836 -10.4882 -8.15778 18.3422 
24927 5 0.559259 23.61 11.1153 15.5749 -1.48182 8.09158 
25426 5 3.10363 23.8017 10.4009 3.67142 -9.53216 -9.5044 
25420 2 1.64879 23.9265 10.0018 35.2133 98.0838 59.0384 
25401 1 4.97038 25.5329 10.7242 12.5703 4.78079 10.812 
24924 5 3.18735 27.1766 10.4054 -5.99303 -6.00051 -13.8713 
24922 4 1.38256 25.4386 9.75254 -16.41 10.4724 -16.795 
24919 2 1.7823 26.9563 9.95451 0.821415 143.3 58.8726 
24921 3 1.55556 27.7248 8.56562 -3.23802 -0.851389 8.40217 
25462 9 1.60156 23.3783 7.96981 -0.0571496 0.115654 1.81088 
22871 5 6.64021 23.6959 10.9095 4.79678 -4.7592 -4.33566 
25451 9 2.36751 27.8615 8.13061 0.0529216 0.477236 1.54942 
22375 5 6.78156 27.3777 11.2762 1.97952 -3.8642 -3.67591 
20355 9 13.7553 21.1037 8.67011 -2.77377 21.2066 -0.907743 
22873 3 7.36095 26.8242 8.94079 -1.5422 -2.57791 23.0077 
22910 9 7.83453 27.1872 8.16884 0.0130879 0.294978 5.19817 
22881 7 10.5673 22.2037 7.78641 0.174029 0.14518 -0.576373 
22880 7 12.0072 21.7432 8.22322 12.0413 4.36845 -4.4817 
22869 3 7.56442 24.0265 8.5961 -0.826426 -1.28108 0.715958 
22842 6 11.0399 21.8185 8.50693 -11.5455 -8.39809 2.10486 
22909 9 7.42422 24.9915 8.72358 -0.344096 9.45851 -0.647789 
22870 4 7.80675 21.6814 9.76784 -9.70816 13.2167 -14.4435 
22781 1 10.8959 21.6885 11.0129 -26.5206 -19.4267 18.1703 
22868 2 7.76545 27.7412 10.1816 37.4215 97.0775 39.7445 
22867 2 7.78902 23.2324 9.92461 53.6389 189.92 72.1468 
22381 7 12.0152 26.341 8.4485 11.0527 9.08572 -1.24628 
20253 3 13.4682 23.4016 8.82795 -29.0982 -27.5751 6.02644 
22380 7 10.8121 26.2531 7.54966 0.0741351 0.104238 0.101144 
22342 6 11.2091 25.8188 8.3988 -19.3887 -2.50142 29.5855 
20317 3 13.3219 27.8427 9.08682 -10.0565 -12.8947 -8.49265 
20248 2 13.7696 24.0294 10.2263 7.59623 3.35948 111.279 
20318 4 13.624 25.5447 10.0164 -28.9521 -18.9987 -44.2278 
20315 2 13.7788 27.0543 10.3348 50.5715 -15.5772 83.3482 
22865 1 10.6865 25.3992 10.9226 11.8058 11.2364 11.4092 
22872 5 9.17462 23.6871 10.462 5.41521 -15.502 -13.9969 
22874 5 9.24947 27.6706 10.5948 6.82251 -9.57376 -10.0651 
20356 9 12.5954 23.6209 8.49206 10.2448 3.8473 -9.7242 
25431 7 14.1509 26.52 7.83751 1.02966 4.70683 6.75394 
20323 5 12.8525 23.6161 11.429 2.12872 -7.91702 1.50288 
25430 7 14.093 24.9955 7.86813 1.59507 4.68071 10.4291 
25395 6 14.4016 25.7329 7.27378 -0.135458 0.0927731 -0.157469 
20258 7 15.2294 22.3163 8.12146 1.30402 0.0988587 -1.47143 
20223 6 16.0015 21.7513 8.2238 -7.19325 -1.13838 9.27972 
20245 1 16.5342 21.695 10.8038 16.2798 20.3824 33.7762 
17698 4 19.4354 21.7483 9.56107 -11.6885 -3.40579 -28.3363 
20320 5 15.2214 27.4242 10.856 4.3928 -11.035 -14.7909 
20254 5 15.1801 23.5949 10.561 -15.8669 -11.4402 -20.5577 
20329 7 17.2434 26.6466 8.28058 3.99381 3.17732 -3.66479 
20328 7 16.0419 25.8023 7.61998 1.69277 -0.0205637 -0.0921265 
17803 9 18.6355 24.4714 8.19816 9.10662 9.19654 -0.695673 
20290 6 16.6573 25.8385 8.42977 -26.8953 -4.56831 8.53002 
17697 3 19.4666 23.9299 8.24968 -7.17931 -15.3151 7.72882 
17701 3 18.7572 27.5768 9.07536 -11.3476 -29.2601 -3.84996 
17695 2 19.6311 23.298 9.64847 0.839107 4.77471 77.9428 
17696 2 19.6976 27.9701 10.2409 33.3552 98.8288 93.7387 
17700 5 20.9899 23.6351 10.1729 -17.3192 -7.68806 -19.2979 
17702 5 21.0953 27.3466 10.1236 8.10874 -13.068 -21.4902 
17699 5 18.7076 23.7838 10.7613 -2.94922 -4.17662 -1.91612 
20229 1 17.0048 25.6018 10.9426 19.6472 14.9456 8.69574 
17708 7 20.0702 22.1005 7.0657 -0.267277 1.37802 0.721372 
17670 6 20.1319 21.2549 6.64674 -0.716483 0.874333 -1.17757 
17707 7 20.7868 25.2363 7.6314 4.65739 4.90645 -0.116937 
17706 7 21.1787 26.5559 8.43819 0.102715 6.4738 6.84404 
17671 6 21.5933 25.7538 7.94146 -0.243712 -4.72185 5.43907 
17804 9 18.1596 28.2261 8.79174 4.31003 -0.406631 -2.96946 
15302 9 22.12 22.0167 7.2663 -10.8021 2.25916 -0.744107 
15082 7 28.9341 21.4367 6.98265 -0.157323 1.89498 -3.14324 
15309 7 26.1711 21.1856 5.56242 -0.0521417 0.352213 -0.581763 
15297 7 25.7773 22.9358 5.36905 0.0241658 0.420829 0.0393614 
15076 3 22.8653 21.7306 7.945 5.28264 -10.1255 7.00447 
15105 6 25.4296 21.9972 5.7434 2.53573 2.85611 8.76872 
15067 1 28.5009 21.8246 10.3102 7.76302 13.9879 22.3249 
17603 1 22.8719 21.8054 10.3091 41.7487 31.1076 60.9971 
15070 8 24.6898 21.8654 7.53391 8.50457 21.7588 -6.01274 
15157 7 24.761 24.7113 6.5409 0.0728255 1.39276 -2.27613 
17693 1 22.4585 25.6458 10.3024 35.3507 46.625 77.7101 
15118 6 24.3516 25.0692 5.80024 0.217625 -0.0142627 -0.0764777 
15156 7 23.4675 25.4068 6.08223 0.347437 0.0650852 -0.0172987 
12750 9 28.7793 27.0604 8.02173 -18.1827 -1.33803 -3.55857 
15145 3 25.8709 28.1424 8.32624 -24.8133 -9.80044 24.2974 
15077 4 25.2347 23.1977 8.50469 -14.7176 -21.7741 -11.694 
15146 4 25.5466 25.6818 9.29943 -7.6108 18.0912 -15.7544 
15143 2 25.8227 27.2278 9.63665 33.2187 56.492 41.696 
15071 2 25.6377 24.1622 9.58877 41.7804 137.587 72.0821 
15078 5 27.0823 23.775 9.8664 3.6154 -1.55346 -12.568 
15148 5 27.2019 27.5255 10.2775 11.6067 -13.0644 -15.6938 
15051 1 28.9278 25.6837 10.4438 0.456332 13.0313 45.0545 
15147 5 24.7278 27.7419 10.5663 3.75239 -1.65106 -7.9499 
12524 3 29.1596 26.0649 8.01414 -11.1945 -1.22869 9.09509 
15045 6 29.2043 21.7754 7.82857 -18.3955 -10.9052 5.44307 
15251 9 25.5134 27.6474 7.63837 -0.100495 -0.309022 15.5507 
15151 5 24.6677 23.8201 10.7274 -4.61394 -8.11511 -16.6247 
25272 7 0.601709 4.14023 16.1131 6.61329 1.13707 -2.27043 
25198 5 4.5419 2.55475 12.6561 -17.7158 -10.0008 -10.4712 
25195 5 4.3158 -1.09258 12.7632 -0.414861 -2.55388 3.56488 
25511 9 0.0122397 0.656865 16.1151 -27.2583 4.3494 -3.26122 
22635 1 6.05896 0.692999 12.8525 -7.13861 2.23922 -12.7921 
25268 5 2.06322 2.89899 12.9931 0.444344 -9.41913 -22.5025 
25258 1 0.250924 4.4912 12.7638 8.70082 4.77012 10.6818 
25207 1 0.476342 0.786529 13.0733 16.3782 43.8839 26.0582 
25191 2 3.47612 3.03985 13.5769 20.5682 84.7723 68.0255 
25263 4 3.57926 4.53329 13.9916 -25.3049 5.9247 -28.0707 
25197 4 3.26023 2.0922 14.7531 -13.7315 -28.9721 -15.0718 
25192 4 3.04502 -0.482259 14.848 -11.0539 -21.2204 -8.87865 
25196 3 0.738247 0.917521 15.4177 -17.0367 -19.5071 10.455 
25190 8 2.51186 0.879005 15.7902 -53.9803 9.74424 -43.6797 
25240 6 3.50982 1.00204 17.5016 2.2003 -10.2691 -2.50202 
25519 7 3.64681 2.02266 17.8655 -1.91728 13.5697 9.45748 
25507 7 3.35194 0.395228 18.2817 -5.949 2.56205 -32.8095 
22649 6 4.14317 4.73714 17.0703 -1.86311 -4.79772 -12.5709 
25308 6 0.163772 4.55839 15.38 -19.934 -2.365 13.1551 
22959 9 6.11916 4.28054 15.6933 -18.5805 3.45053 -2.05681 
25270 6 1.6788 3.49668 17.7062 -26.5331 -9.0599 -14.6552 
25310 7 2.26501 3.22086 18.4484 2.52568 2.26457 24.0678 
22655 1 6.37544 4.67075 12.8239 0.527432 5.3701 -7.49189 
22760 7 5.0706 4.63203 18.873 3.14767 -0.354235 6.96647 
25194 5 1.89442 -1.62182 13.1754 -0.248035 -13.4801 -19.4699 
25189 2 3.31878 -1.5892 13.8009 47.7359 -80.074 94.8687 
25309 7 0.977428 3.85177 18.1888 -4.41702 -3.86839 -0.612128 
22683 6 6.30414 1.23581 15.2996 -12.3349 -5.87399 -10.7185 
22650 7 6.86964 1.82639 15.8555 1.57523 4.38728 0.419725 
22684 7 3.22642 4.41776 17.2975 16.9452 -0.77176 -1.06238 
22685 7 3.96569 5.39403 16.3928 -2.96431 9.34862 9.13556 
22651 7 5.43031 1.41305 15.5714 -0.497128 1.44435 -2.4405 
22644 3 6.88048 4.74852 15.1898 0.393792 -18.4744 7.01826 
22687 7 6.4595 1.12288 18.728 4.80497 15.2751 6.39675 
22759 7 6.15643 3.72082 18.9114 -6.32172 -5.21748 -6.29366 
22686 7 5.06595 0.371205 18.9572 5.59602 3.79408 -4.32769 
25471 9 3.91303 -1.594 19.1506 14.2047 2.95951 39.05 
25236 7 0.953779 1.51833 18.9947 1.90754 4.93849 -3.24374 
25201 6 0.0630523 1.21766 19.197 -11.3639 -10.1145 26.8079 
20061 7 7.58141 2.86103 18.5515 12.0313 -2.2711 8.96026 
20023 6 7.22741 2.29563 17.8508 -36.4665 -21.2189 -15.0319 
20062 7 7.97643 1.73655 17.5781 9.75822 4.46631 -6.4469 
20101 7 10.5646 0.844224 18.0201 7.18339 -1.44887 1.56982 
22931 9 9.63083 -0.696103 15.7652 0.891907 7.94494 64.9811 
22643 5 10.3472 2.57234 12.1955 -1.66143 -3.89104 -8.35703 
20083 1 12.0539 4.57824 12.2941 23.8694 14.1791 24.669 
22642 5 7.78438 2.32799 12.6693 -1.93799 -9.00746 -20.5973 
22572 5 10.3915 -1.19034 12.4814 1.04154 -6.5838 -3.1183 
22647 5 8.01803 -1.15376 13.3887 11.718 -9.57816 -17.7125 
20029 1 12.4935 0.818447 12.5759 13.1582 25.7511 4.03372 
20095 5 13.8672 2.81253 13.0198 -11.148 -8.96791 -14.4192 
22637 2 9.23854 2.21284 13.1776 45.2189 153.413 70.8101 
22565 2 9.47766 -0.798971 13.6553 32.5191 31.9796 45.8079 
22641 4 9.6135 0.790931 13.697 -21.7046 21.5492 -25.5178 
22640 4 9.10375 3.21619 14.2882 -11.5779 -20.5558 -10.3682 
20060 6 12.34 1.33403 15.2053 -4.88644 -5.64561 18.7161 
20025 7 12.6628 1.32947 16.0693 -0.967891 1.58203 -8.06194 
22638 8 8.68639 4.51772 15.4306 -9.40548 19.4814 3.90182 
20024 7 11.4069 1.05918 15.3673 8.65523 0.540191 -2.56189 
22688 6 9.66936 3.99275 17.0826 7.2394 -0.758441 25.7484 
20130 6 9.65389 0.809627 17.6737 2.95913 -3.99326 -3.76001 
20016 5 13.8732 -1.10957 13.0216 5.79759 -12.3125 -18.5228 
20100 7 9.4165 -0.0794544 18.0183 -3.0181 13.1157 12.5546 
22967 7 9.72389 2.91233 17.1311 -8.28999 -3.05319 -17.3083 
22571 3 9.88716 -1.37055 15.0417 -15.9385 -5.39703 35.8359 
22955 7 9.1429 4.23597 17.9915 -0.283548 7.91541 9.19862 
22919 9 9.34516 2.26636 18.9289 -0.337814 9.14496 58.4977 
20099 7 10.9646 5.09567 19.1103 25.876 9.51988 -1.89406 
20379 9 14.6349 1.83514 15.396 -7.42045 5.17064 -4.13132 
20096 6 12.5789 0.890372 19.197 -12.5608 -3.25774 0.872306 
20098 7 11.9723 3.95587 18.6724 0.422624 2.8725 -0.898417 
20135 7 12.9582 0.0827803 18.7678 5.08202 4.44632 -1.42403 
20131 6 11.8906 4.74103 19.279 -10.3257 -3.54552 9.91332 
17470 6 17.0955 -1.37669 16.946 3.33427 -17.2037 -13.6974 
17512 7 16.1542 -1.2058 16.5782 17.9139 -1.30445 -2.02596 
20378 9 15.4007 0.0444891 14.8487 0.616536 47.7993 29.9114 
20012 2 15.2359 -1.61828 13.5115 7.68714 124.686 76.6796 
17469 5 19.9364 -1.30131 13.4326 8.8389 -12.5838 -10.8095 
20017 5 16.2815 -1.21496 12.5395 12.2246 -1.30439 1.26322 
20020 5 16.2894 2.4578 12.6312 -7.21006 -4.62035 -12.5633 
17477 1 18.4308 4.50707 12.7514 52.628 43.4733 51.103 
17458 1 18.218 0.637135 12.871 45.9658 34.4946 18.6131 
17464 5 19.9587 2.61017 13.0923 -10.0479 -12.9905 -14.5355 
20014 3 15.3481 -0.927596 14.9324 -16.2845 -4.35119 23.5064 
20013 2 15.2355 2.86552 13.6686 27.3795 -11.7873 38.1996 
20089 4 15.4847 4.41259 13.8828 -19.2818 -0.453593 -22.063 
17460 2 21.2934 2.30374 13.8302 58.2124 248.256 59.469 
17386 2 21.2555 -0.760946 14.0881 49.0348 63.7434 42.5292 
20019 3 15.4651 2.0182 15.034 -32.736 -2.18187 23.3927 
17466 6 18.0586 0.877689 15.5524 -35.2957 -0.247607 42.4589 
17494 7 17.8465 -0.0436021 16.0387 5.19889 27.4424 2.74714 
17493 7 17.1915 1.24103 15.3722 -5.56598 -8.24414 -10.3612 
17471 6 19.556 2.95664 17.0214 -15.8194 -5.07117 2.60204 
17510 7 19.0366 2.12763 16.8224 7.43359 10.3148 0.330453 
17509 7 19.8426 2.93845 17.9528 3.86176 -0.42747 7.39175 
17463 4 21.2166 0.803669 14.1626 -14.34 18.9929 -29.028 
17826 9 20.7918 3.02977 15.7135 0.257104 -4.95443 -19.9706 
17472 7 18.3707 3.79627 15.8374 0.266961 1.16115 -5.93904 
17508 6 17.9688 4.40393 15.2161 -53.476 -41.5302 -9.23187 
17473 7 17.0707 4.15255 15.3297 -2.53012 1.40058 -1.44294 
14959 7 21.5852 -1.13873 18.3934 2.94034 31.9467 14.8965 
14960 7 21.2521 0.405323 18.4148 -0.754025 6.30879 5.67696 
17391 3 21.3612 -1.31267 15.522 -15.0484 -26.8768 16.4373 
17825 9 21.2888 -0.549564 16.1718 -2.13498 9.54776 122.271 
17462 3 21.4793 3.22421 15.0534 -28.3705 -23.5764 -17.6324 
14918 6 21.7369 -0.26816 17.8612 10.1606 16.5573 11.2572 
17457 7 17.4575 0.0981338 18.4408 1.39494 1.13035 0.380899 
17583 7 18.8083 4.87511 18.4704 0.673306 1.36831 -3.17095 
17827 9 21.2561 5.15019 15.2666 -0.0173115 -2.90917 -26.3524 
20366 9 15.1256 3.56941 19.0659 -0.18852 2.03426 5.21053 
17456 7 16.684 1.28874 18.8391 3.31074 2.05585 -2.48579 
17503 6 17.2237 0.611247 19.2216 -18.8347 -17.6705 -0.540446 
20365 9 15.612 -0.750008 19.1292 8.6967 10.3907 15.0695 
12370 7 29.5949 5.15639 16.3444 4.34961 0.522823 -9.12713 
12293 7 29.7083 1.5033 16.1752 4.73714 3.68705 -0.179665 
12752 9 29.8004 4.70975 18.6498 -6.90483 0.900214 3.29917 
17392 5 22.3788 -1.113 13.0479 14.3999 -0.0124552 11.9452 
14868 8 26.2331 0.425422 19.0299 25.8204 58.1282 51.9368 
15272 9 27.1977 -1.12957 15.7596 -5.58469 -0.23234 -60.5982 
14833 2 27.436 -1.7351 13.7653 10.642 64.0021 72.952 
14837 5 26.0685 -1.25524 13.3193 -21.2241 -13.817 -15.4839 
14835 3 27.9257 -1.13087 15.173 -20.3526 -28.7502 -24.4189 