ITEM: TIMESTEP
330000
ITEM: NUMBER OF ATOMS
25517
ITEM: BOX BOUNDS pp pp ff
-3.8959205201285124e-01 6.0088135642019459e+01
-1.9452389155355383e+00 5.9115524189537531e+01
-1.2206056431032383e+01 1.1390111600702880e+02
ITEM: ATOMS id type x y z v_stressx v_stressy v_stressz 
25292 7 5.89857 3.03966 7.5916 -2.39483 -8.46878 -6.1006 
25293 7 5.98077 1.53035 7.7064 -1.85386 -5.87056 -1.8596 
25252 6 5.35811 2.25094 7.51796 -6.3952 -3.27091 0.206064 
25287 5 0.61597 0.755495 10.7564 8.26328 -1.63577 4.92084 
25283 5 2.94291 4.2301 9.842 10.8747 6.59109 -13.1993 
25281 4 1.3887 2.44216 9.07367 -13.5124 1.97764 -17.2461 
25280 4 1.07853 5.00258 8.46007 -12.7589 -8.48472 -6.83311 
25277 2 1.45655 3.94107 9.49571 50.9088 40.754 80.6274 
25215 5 2.99957 0.588718 9.72621 -14.7877 -10.1402 -11.6353 
25209 2 1.59287 0.935181 9.44522 6.72369 -55.3564 73.5423 
25188 1 4.8243 2.58953 9.97468 5.7388 1.64423 14.4558 
25214 3 0.796635 0.0137284 8.44439 -2.03615 -4.31021 2.03691 
25282 5 0.520916 4.37471 10.6565 -14.6031 -14.5449 -17.6422 
25458 9 1.40812 -0.435335 7.83607 0.0287355 2.07363 1.70193 
25206 1 4.52732 -1.17961 10.115 35.1617 38.1393 20.8487 
22660 5 6.52822 0.875659 10.2203 -0.957432 -5.62716 -15.8421 
22735 5 6.623 4.87348 10.5536 2.48842 -9.1846 -14.8043 
25505 7 1.83983 5.65447 5.50835 -0.0541863 -0.1583 -0.295552 
22662 3 7.17647 4.29529 8.22411 -12.3032 -23.2282 -19.0274 
22658 3 7.30314 0.346889 7.89736 -15.0776 -15.4067 -11.7636 
22905 9 7.65252 -0.485879 7.46068 0.0262402 -0.411798 -4.47752 
22906 9 7.50322 4.57024 7.35908 -2.65334 4.37318 10.0111 
20115 7 11.1372 2.292 6.49758 0.44526 -0.00289944 -1.13949 
22656 2 7.7059 0.365729 9.40584 22.3089 74.9127 63.8474 
20116 7 12.1136 2.88755 7.40659 19.6444 6.76936 2.66582 
20078 6 11.1398 2.86581 7.23657 -15.8951 -11.7623 1.48897 
20106 3 13.741 4.72985 7.46261 -15.856 -11.2034 42.3312 
22657 2 7.60419 5.1024 9.41016 54.6056 -15.8749 21.826 
20036 3 13.619 0.47741 7.57109 -16.5802 -19.6421 16.7455 
20107 4 13.6664 2.6833 8.8298 -17.9919 -14.2185 -33.3052 
20104 2 13.8784 4.18168 8.97251 32.2515 36.8215 92.2554 
20031 2 13.7132 1.1448 8.96008 62.0742 164.128 13.5575 
20108 5 12.6966 4.70757 9.81807 14.6013 11.9049 2.29072 
20112 5 12.4932 0.846951 9.91178 10.9818 -0.185509 7.44026 
22654 1 10.4859 2.78478 9.68506 11.3328 10.1071 10.4099 
22661 5 9.03983 1.11007 9.56315 -7.56918 -6.6625 -16.2425 
22663 5 9.10858 4.7108 9.73761 4.4367 -12.7734 -14.8204 
22563 1 10.886 -1.13469 10.1589 0.411814 -0.286918 -10.6771 
22659 4 7.7627 -1.12896 9.68153 -9.37287 -34.9047 -35.3913 
22629 6 11.3751 -1.065 7.76545 -16.8416 4.97069 2.67409 
22669 7 11.9249 -0.207968 7.44815 1.29675 5.23021 -1.33193 
20352 9 13.8605 1.22514 6.87465 0.749652 12.5579 14.7496 
20189 7 14.2777 3.18994 6.51456 0.317261 13.5598 8.40234 
20353 9 14.543 5.23857 7.22704 7.78172 13.2254 16.7711 
20148 6 14.5671 2.45013 5.87332 0.142923 0.0560033 0.0981476 
22740 7 11.2703 5.5881 6.8279 3.29491 1.48647 -1.10839 
22738 7 8.76742 5.41578 5.90114 -0.671323 0.70728 -1.31401 
22701 6 7.85394 5.37142 5.69312 0.42143 -0.358125 7.85488 
22739 7 7.886 4.86164 4.87022 -0.0109345 0.0204673 0.00830149 
22670 7 11.9327 -1.89861 7.72342 1.06439 1.68887 -5.29386 
20188 7 15.4435 2.20345 6.22553 0.82043 -0.132098 0.071937 
20037 5 15.0057 0.565552 9.66218 -0.805834 -6.8919 -12.7835 
20118 7 17.8719 2.63796 7.70159 5.66887 -0.29945 -2.97006 
20117 7 17.6995 1.17882 7.44002 3.03535 2.56981 -4.76439 
17799 9 19.455 -0.241526 7.33338 0.337571 6.60448 17.804 
20077 6 17.1284 2.01775 7.60787 -23.3664 2.2365 26.8608 
17484 3 19.536 4.02271 8.03155 -4.22846 -2.6409 -2.26577 
20109 5 15.1822 4.68195 9.53593 -5.97373 -7.45628 -17.4227 
17480 3 19.3808 0.510653 7.95906 -16.5193 -31.9591 11.3986 
17478 2 19.7385 0.13463 9.405 33.04 34.9839 48.5403 
17479 2 19.7269 4.90401 9.32133 47.3833 113.667 59.585 
17485 5 21.0972 4.45706 9.83859 4.81874 -16.0888 -16.0764 
17483 5 21.125 0.57616 9.92672 4.9708 -10.0791 -13.7987 
17482 5 18.7273 0.612358 10.4453 0.756146 -3.8459 -6.54047 
17560 5 18.5746 4.39351 10.2378 -1.04107 1.82629 -11.0726 
20011 1 16.7883 2.43064 10.1919 50.1244 46.0018 43.3931 
20028 1 16.5417 -1.33752 10.1131 23.637 17.4298 9.95581 
17481 4 19.613 -1.37684 9.30614 -12.4618 -20.0225 -38.2755 
17800 9 20.2785 3.41394 7.96437 0.321672 -2.86903 -5.48113 
20002 6 16.2002 -1.21507 7.53432 -10.5659 -7.52611 13.4089 
20044 7 15.5857 -0.449442 7.68688 4.43967 8.57875 -2.84521 
20043 7 16.3516 -1.12082 6.60323 0.286214 0.20232 -0.835324 
17377 6 19.8786 -1.6773 6.3322 0.246535 -0.140146 -0.00838087 
17415 7 20.5742 -1.92657 6.98281 2.88245 2.50044 2.02566 
14864 7 23.6314 3.83266 7.75133 5.60942 -4.67905 -1.47185 
14825 6 23.2988 2.969 7.82153 -9.33143 -3.8464 1.43418 
14863 7 24.1611 2.53617 7.90018 3.885 -1.31092 -0.660191 
17476 1 22.5994 2.5974 10.2549 -65.6206 -40.8527 54.2616 
14928 3 25.5679 4.59148 8.20809 -31.5163 -50.1609 -46.3414 
15246 9 24.7065 0.00657495 8.04332 7.94504 10.7797 19.7617 
14856 3 25.5405 0.383335 8.16649 -12.6007 -14.7906 11.1837 
14929 4 25.6618 2.47021 9.27814 -17.8478 -35.3585 -33.9081 
14851 2 25.7726 0.935136 9.6021 20.1549 -189.31 75.2081 
14926 2 25.8313 3.99121 9.61155 28.5032 145.902 87.7393 
14857 5 27.172 0.513951 10.0212 -9.78445 -12.0301 -20.62 
14931 5 27.2703 4.30837 10.1061 -28.4323 -11.3799 -17.714 
14832 1 28.9014 2.41808 10.4207 15.5488 12.2378 57.4862 
14930 5 24.8007 4.37565 10.6576 12.8031 -4.53439 -12.9356 
14934 5 24.7275 0.511689 10.6576 4.46956 -4.04809 -1.5059 
17384 1 22.8636 -1.16741 10.5973 -0.743409 4.50872 -0.0729464 
14848 1 28.7231 -1.43222 10.2624 14.7697 19.0235 -9.89287 
14898 6 29.1786 2.45721 7.88738 -13.7873 -15.4631 6.47421 
15247 9 26.3681 4.66526 7.72718 -1.61041 -1.08618 -15.3095 
14826 6 28.1456 -1.3901 7.71182 1.12189 -3.55938 27.2325 
14861 7 27.5228 -0.59177 7.7367 5.04028 5.88191 -2.35293 
14862 7 28.7608 -1.17174 6.9734 0.156598 0.0388981 -0.0653295 
17565 7 23.8543 5.62398 7.62904 12.5599 3.76132 -1.50759 
17491 7 23.3409 -0.830267 7.25909 0.100694 0.0740028 -0.467474 
12347 6 29.4782 5.3719 8.00631 -15.3187 -7.29863 4.38457 
14939 7 29.2544 3.33895 7.63004 0.453519 -0.916359 -1.22635 
17492 7 24.1978 -1.77871 8.08715 8.19342 2.56152 -6.33703 
17450 6 23.2929 -1.42611 8.02021 -21.6743 -7.16891 19.2517 
25291 7 5.22591 6.53661 7.32751 1.20974 1.67811 -3.13983 
25290 7 3.82687 6.55555 6.86919 -0.676821 1.68703 -4.41197 
25253 6 4.33607 6.71227 7.63615 -9.71136 -11.7246 1.97059 
25517 7 1.84279 7.29014 5.50902 -0.0238314 -0.0524116 -0.553353 
25313 6 1.21101 6.45671 5.78137 5.93978 -5.55761 30.3404 
25362 7 1.19888 10.608 6.31952 -0.0132812 0.00341174 -0.0300778 
25275 1 4.36027 6.50413 10.1833 4.29726 13.0022 2.35571 
25278 8 0.639374 6.49188 7.63496 53.2985 32.2336 10.1816 
22958 9 3.89074 10.3239 7.2783 -3.46684 1.5341 0.251114 
22732 3 4.70032 10.3548 7.96195 2.38895 -12.7304 13.5979 
25359 5 0.701437 8.49354 11.0939 -9.83183 -10.1189 -16.7776 
25356 5 3.08021 12.146 10.2169 9.73829 -0.0118531 -12.7752 
25355 5 0.535314 12.2845 10.6518 -2.73943 -5.58581 -7.47518 
25354 4 1.48185 10.2856 9.54639 -13.8697 13.5884 -27.6895 
25353 3 1.39194 12.6945 8.41831 -17.1358 -10.1249 1.87376 
25351 2 1.63225 11.8296 9.72046 39.8598 48.9659 67.1924 
25286 5 2.93236 8.28049 10.0288 -5.6976 -16.0876 -18.9343 
25285 4 0.892127 7.85648 8.74192 -21.0113 -18.7084 -5.35731 
25279 2 1.49492 8.71367 9.83417 17.1395 97.9454 77.8272 
25259 1 4.86194 10.2149 10.3927 8.25009 9.42575 59.9225 
25327 6 1.60703 9.7444 6.34125 2.28431 1.14939 -0.732293 
25363 7 1.38635 9.50649 7.2315 0.572675 2.90052 1.51801 
22807 5 6.5607 12.2849 10.8694 -16.0066 -14.457 -17.3031 
22730 5 6.65234 8.34528 10.5398 -4.95531 -15.2207 -13.6784 
22726 8 6.48614 10.4372 7.49213 -1.61457 18.0064 -26.1699 
22761 6 7.05704 10.8316 5.66761 1.74167 2.48514 6.78401 
22733 4 6.9844 11.7221 8.61372 -10.9301 -12.7427 -2.71228 
22728 4 7.23016 9.05362 8.29312 -12.9494 -20.3635 -5.60318 
22953 7 7.91026 10.1976 5.3838 -0.0660031 0.100603 -0.651485 
22965 7 7.33207 11.8331 5.45166 -0.0479072 0.142177 -0.276429 
22741 7 11.5 7.01103 7.05421 2.61542 -0.0325093 -1.52568 
22700 6 10.8104 6.36788 7.23855 -16.2043 -2.14057 18.0615 
22636 1 10.9188 6.69179 9.82281 4.13882 9.43987 10.7693 
22729 4 7.48133 6.61374 9.11192 -11.3811 -8.50623 -27.5703 
22668 7 10.5831 8.59932 7.42923 1.93904 4.36815 -3.11207 
22725 2 7.70374 8.13304 9.39568 27.8494 32.7528 97.4007 
22727 2 7.53968 12.6129 9.75953 17.2339 132.817 79.1845 
22630 6 10.7174 9.56513 7.55044 -8.26189 0.637534 5.06682 
22667 7 11.6785 9.56 7.58776 1.27681 0.75215 -1.26899 
20110 3 13.3722 8.00482 7.87861 -11.028 -1.06449 -3.60362 
20176 4 13.3404 12.979 8.33811 -6.6409 -7.01032 -4.15599 
20177 4 13.5478 10.5013 8.95979 -6.45597 -0.365698 -16.6699 
20173 2 13.7057 11.9908 9.40771 34.7421 -4.18964 79.7428 
20105 2 13.7244 8.93675 9.12343 -1.11047 7.0508 85.4846 
20178 5 12.5598 12.2564 10.4158 -8.1588 -12.3077 -22.0401 
20183 5 12.8988 8.51128 10.3587 -3.73936 -11.2785 -6.88859 
22734 5 8.97942 12.4092 10.1072 -12.4563 -12.3901 -17.142 
22723 1 10.5486 10.4168 9.97488 -3.11134 4.17702 9.44553 
22731 5 9.11607 8.33188 9.85191 -15.6919 -24.6378 -21.9825 
20354 9 13.8366 7.1662 8.02076 -1.08187 -12.3473 -25.5765 
17489 7 15.3685 7.53149 7.27379 -6.18851 -2.28989 -3.81469 
17490 7 16.4114 7.08597 6.51817 -0.224398 0.0334569 -0.31292 
17451 6 15.9423 6.78743 7.29642 -18.9131 -17.1448 17.6572 
17555 4 19.5148 6.40419 9.24816 -10.9793 2.49171 -18.0207 
20102 1 16.4765 6.46221 9.86905 10.8659 0.53816 18.9822 
20179 5 15.0791 12.3713 9.86379 2.65658 3.68418 -11.6482 
20111 5 15.0953 8.51182 9.52882 -26.3778 -13.9873 -14.7378 
17802 9 19.4832 11.878 7.51898 -0.107417 -0.0962937 0.172364 
17554 3 19.6317 8.68088 7.9737 -1.88015 -5.35521 6.16836 
17801 9 19.3812 9.57046 8.10065 0.639825 12.2165 6.3644 
17558 3 19.3121 11.5602 8.35726 -4.24331 -2.18172 -0.415338 
17552 2 19.7279 7.97853 9.40881 25.8671 58.0544 58.3096 
17553 2 19.7446 12.5897 9.5152 43.8959 43.5124 66.9786 
17559 5 21.2085 12.1329 9.83297 6.81884 -0.536195 -10.2629 
17557 5 21.1128 8.33065 9.93016 0.931799 -11.5394 -15.2372 
17556 5 18.49 8.44005 10.194 12.2996 -4.15016 -7.1546 
17631 5 18.754 12.2185 10.6826 1.71838 -5.48472 -4.5717 
20084 1 16.8199 10.2664 10.3615 -10.9849 -4.21174 -1.28381 
17566 7 22.7737 6.49197 7.09029 0.0948045 0.0186577 0.0534734 
17525 6 23.2369 6.30614 7.97014 -30.0991 -6.0185 16.8531 
15249 9 26.4199 12.3989 7.50271 0.846443 0.688002 0.258994 
14924 1 28.8784 6.30371 10.2599 25.2368 20.4162 8.99155 
17459 1 22.8153 6.36449 10.4136 -83.3345 -68.238 39.7394 
17550 1 22.6813 10.1773 10.109 18.7875 17.7989 8.14487 
15248 9 25.0074 7.30471 8.25379 6.7899 8.88297 8.73909 
15002 3 25.5553 12.1132 7.86039 -4.90609 -8.8036 8.84328 
14932 3 25.8534 7.69566 8.37038 -4.71828 -4.21005 1.39951 
15003 4 25.6929 10.0578 9.40228 -9.31723 -5.97517 -22.9239 
15000 2 25.8234 11.5586 9.33827 30.481 103 71.4037 
14927 2 25.9265 8.52626 9.67582 40.7453 67.0308 71.7446 
15005 5 27.2586 12.0307 9.65026 -1.77347 -12.6892 -16.5655 
14933 5 27.3368 8.19806 10.2714 9.41956 -14.0417 -17.1162 
15004 5 24.794 12.1885 10.2281 0.987095 3.17901 -12.3863 
14907 1 29.0423 10.186 10.3202 23.2248 18.3393 21.5215 
15008 5 24.7476 8.17989 10.6591 16.0661 -0.188074 -2.03992 
14899 6 29.4402 9.94521 7.67407 -3.24075 0.0216892 5.28073 
17637 7 24.0129 13.1402 7.48134 1.61376 0.647748 -0.173742 
25427 5 0.471403 16.2254 10.9577 6.12491 -3.7918 -5.25891 
25424 5 3.05777 19.7432 10.2643 -15.1463 -6.51908 -9.3578 
25423 5 0.62854 19.9386 10.7649 4.12405 -4.28587 -9.55201 
25422 4 1.53223 17.8586 9.5283 -9.86672 6.90224 -14.4001 
25421 3 1.35286 20.1653 8.46116 -3.27798 -2.6375 -0.200643 
25419 2 1.68921 19.4163 9.80763 -40.4379 140.646 64.0668 
25358 5 3.0433 15.9649 10.3935 6.02185 -1.07023 -11.3884 
25352 2 1.62447 16.359 9.9389 57.2169 1.83654 35.9578 
25333 1 4.76049 17.9652 10.8964 -7.00446 13.5933 -57.8427 
25357 3 1.27516 15.4524 8.77037 -12.558 -16.5882 18.2025 
25460 9 1.6173 15.8283 7.87293 0.10978 0.362438 4.1824 
25349 1 4.58657 14.1062 10.6957 6.22694 16.3523 -33.4893 
22803 5 6.49129 16.0975 10.8756 1.53831 -0.606067 0.573105 
22875 5 6.46084 20.071 11.1158 20.3677 8.12076 11.7922 
25459 9 1.48999 13.6574 8.56205 -1.4242 3.89816 -3.82096 
22801 3 7.03055 16.5942 8.55987 -2.34816 -7.02254 4.19993 
2179 7 -0.387305 20.8468 8.22815 14.498 2.32927 -6.05708 
22805 3 7.32975 19.3599 8.91011 -8.77253 -8.83104 25.6023 
22908 9 7.54595 19.9046 8.12021 0.0185028 0.261301 6.55556 
22774 6 7.84223 14.1301 6.46407 1.98897 1.25024 1.76154 
22907 9 7.21638 17.5067 8.66763 -0.00225834 20.317 1.79729 
22800 2 7.69826 20.1918 10.1825 71.1923 58.1761 34.5459 
22810 7 9.52718 17.6319 7.67339 -2.02844 0.955693 -2.01575 
22775 6 10.3724 17.5576 8.1234 -18.079 -9.13538 6.75332 
22811 7 11.0269 17.744 7.42304 6.08543 1.06219 -1.26233 
20249 3 13.6146 20.1923 8.5115 -17.7041 -16.3043 19.9745 
22799 2 7.50164 15.6895 9.76752 1.7185 22.1357 70.4659 
20181 4 13.1648 15.598 8.7498 -9.69509 -31.993 -11.7092 
20250 4 13.59 17.8559 9.69511 -14.0497 6.60073 -27.0255 
20247 2 13.6446 19.4223 9.89672 4.24952 29.8307 67.8614 
20175 2 13.7411 16.3389 9.95052 45.2941 116.663 85.3073 
20255 5 12.7826 16.0392 11.1348 -3.1774 -11.795 -16.0763 
20251 5 12.5994 19.887 10.8751 -0.713029 0.102259 5.53498 
22797 1 10.5866 17.8329 10.6706 4.05543 -1.28959 29.4921 
22804 5 8.85928 16.0465 10.2629 -4.52401 -11.3422 -14.0026 
22806 5 9.15709 19.6726 10.6518 26.4234 -12.4999 -11.5111 
20209 6 12.874 15.0323 5.7533 0.476739 -0.362733 1.46563 
20174 8 12.7095 14.4625 7.54514 27.3359 10.986 -54.1866 
22802 4 7.35344 14.1712 9.46207 -20.9424 9.44676 -28.7191 
22707 1 10.7485 14.2517 10.2767 12.6366 10.8909 3.98363 
20180 3 10.8086 14.0423 7.95232 18.1221 -8.89801 4.97177 
20260 7 13.0324 18.8856 6.99744 0.13131 1.34543 1.27658 
20261 7 12.9162 17.3666 7.33817 -0.561905 10.6593 5.53598 
20401 7 13.4229 15.9899 5.62814 -0.161005 0.310915 -1.27487 
20406 9 10.0189 14.4108 7.4707 -1.22917 2.85903 -2.34785 
20413 7 11.9327 15.1884 5.26927 -0.0684795 -0.0248457 -0.438597 
20222 6 12.7014 18.0477 6.67459 -0.744162 0.695862 -1.0301 
22813 7 7.7456 15.0607 6.62462 -0.0677738 -0.0483248 0.0709033 
22812 7 7.44152 13.8113 7.30537 0.772489 1.46664 6.61855 
17861 7 18.0327 18.1656 5.18632 -0.0414768 -0.0257643 -0.195608 
17849 7 19.1146 19.332 5.5722 -0.0519306 0.152599 -0.563958 
17657 6 18.7692 18.3451 5.88217 -4.88737 -2.69254 15.0968 
20252 5 14.9691 19.7344 10.5394 -8.37415 -13.7243 -17.5501 
20182 5 15.2166 16.0409 10.213 -4.00729 -20.5691 -13.5102 
17622 8 18.5634 18.0799 7.75046 32.3682 28.1417 -12.8475 
17854 9 15.9449 18.6012 8.0719 -0.252058 2.05973 -3.15973 
17628 3 16.7563 18.0742 8.25458 3.89096 -10.0803 9.18205 
17624 4 19.3217 16.6826 8.46567 -7.90864 -11.5804 -3.96328 
17629 4 18.9827 19.4332 8.85904 -13.8096 -12.5135 0.90096 
17621 2 19.6951 15.6526 9.54627 47.0604 95.7936 80.3669 
17623 2 19.5501 20.2671 10.0023 54.3346 26.9873 73.9179 
17630 5 21.0316 19.7719 10.2793 12.4465 -2.71604 -14.9539 
17627 5 21.1919 15.89 9.96206 1.09141 -17.7626 -15.8761 
20155 1 16.8424 17.9752 10.6946 2.16285 10.3569 -17.1538 
17626 5 18.7672 15.8963 10.7355 -8.86252 -8.86758 -11.6801 
20171 1 16.7158 14.1373 10.3208 5.27068 6.94262 -21.2297 
17625 4 19.606 14.0957 9.12525 -6.20941 7.81641 -11.4243 
17564 7 21.4906 17.2833 7.58657 -0.575701 1.59974 -1.06797 
17703 5 18.6795 20.0258 11.2014 -15.4421 -12.6038 -20.6897 
17709 7 19.905 20.6273 7.34679 2.93587 4.95944 4.38293 
20259 7 15.568 20.8847 8.4035 12.2449 3.5967 -2.31508 
17526 6 22.4132 17.452 7.70597 -7.63347 -6.83481 17.4684 
17563 7 22.8092 16.6576 7.3521 0.26464 0.37271 -1.81906 
17619 1 22.5682 17.9268 10.3236 11.4908 12.6241 -27.5353 
15250 9 25.4259 16.554 7.3496 3.28084 4.23618 70.521 
15006 3 25.6058 15.7572 7.92658 -17.5465 -12.4504 55.2548 
15072 4 25.3173 20.4252 8.40544 -13.189 -7.967 -3.0907 
15073 4 25.9599 17.9542 9.15621 -16.4198 6.12913 -35.4649 
15069 2 25.8295 19.4844 9.52152 48.5046 196.594 68.6369 
15075 5 27.2671 19.8707 9.91392 4.99439 -4.13131 -14.4645 
15001 2 25.8934 16.4473 9.39988 33.4045 23.1105 34.2898 
15007 5 27.2951 15.9854 9.7832 -0.670226 -10.6831 -15.6995 
14980 1 29.1857 17.8209 10.1444 -13.1663 -20.7091 14.2455 
15074 5 24.8028 19.6389 10.6176 -6.23623 -5.46527 -18.6484 
15079 5 24.8396 16.1163 10.4638 8.49499 -3.54179 1.08184 
12533 7 25.4571 18.3754 7.23091 -0.314619 4.49296 6.18738 
17532 1 22.9834 14.1035 10.1761 9.68646 12.438 8.04069 
14998 1 28.6373 13.9834 10.0874 19.9697 25.1481 12.4852 
12492 6 25.1645 17.9196 6.43544 -1.27784 -1.72615 -0.967792 
12532 7 24.2391 17.8074 6.45162 -0.070495 0.0132416 -0.215937 
17636 7 24.2982 14.6547 7.77674 3.20755 -4.67163 -4.43703 
17597 6 27.3956 19.7327 6.47718 -16.4828 -1.12412 0.733603 
17635 7 27.0344 19.9354 7.31032 6.46463 1.23087 -2.13129 
17596 6 23.5563 13.9987 7.66239 -11.4363 -1.58147 4.43199 
14974 6 28.7308 14.0837 7.53935 -5.81347 -11.0698 7.07441 
17634 7 26.9707 18.9124 6.11254 0.289924 0.570997 -0.147011 
15084 7 28.6931 18.2675 6.90767 0.608645 2.78032 -1.45643 
15012 7 28.1952 14.867 7.30744 1.78463 1.81367 -1.70322 
15044 6 29.2899 17.8272 7.55162 -18.4463 -15.4209 13.9976 
15011 7 29.5706 14.1102 6.99075 5.0604 0.889526 -0.23296 
25461 9 1.63963 21.1191 8.56579 -0.382818 9.06494 -5.91633 
25417 1 4.459 21.7465 10.9217 -17.0061 -20.0375 -33.8662 
24923 5 0.754769 27.5218 10.9484 5.68221 1.44089 -3.98815 
25425 3 1.35108 22.98 8.77836 -10.9699 -8.44452 17.9293 
24927 5 0.559259 23.61 11.1153 15.5392 -1.4505 7.87119 
25426 5 3.10363 23.8017 10.4009 3.49528 -9.46039 -9.03494 
25420 2 1.64879 23.9265 10.0018 36.6387 98.4197 57.7104 
25401 1 4.97038 25.5329 10.7242 11.3771 5.10322 -2.24688 
24924 5 3.18735 27.1766 10.4054 -6.14878 -6.24806 -13.3815 
24922 4 1.38256 25.4386 9.75254 -16.5395 10.2782 -16.4403 
24919 2 1.7823 26.9563 9.95451 0.917652 144.871 57.4781 
24921 3 1.55556 27.7248 8.56562 -3.27492 -0.901434 8.39282 
25462 9 1.60156 23.3783 7.96981 -0.0536042 0.119792 1.81729 
22871 5 6.64021 23.6959 10.9095 5.01824 -4.71031 -4.57968 
25451 9 2.36751 27.8615 8.13061 0.0535035 0.480718 1.55302 
22375 5 6.78156 27.3777 11.2762 2.06086 -4.03823 -4.1508 
20355 9 13.7553 21.1037 8.67011 -2.5226 21.3754 -0.923732 
22873 3 7.36095 26.8242 8.94079 -1.88095 -2.95537 22.4836 
22910 9 7.83453 27.1872 8.16884 0.0180599 0.30395 5.20568 
22881 7 10.5673 22.2037 7.78641 0.175496 0.151793 -0.5875 
22880 7 12.0072 21.7432 8.22322 12.0898 4.4472 -4.58939 
22869 3 7.56442 24.0265 8.5961 -0.882053 -1.30484 0.703704 
22842 6 11.0399 21.8185 8.50693 -11.6163 -8.65049 2.70759 
22909 9 7.42422 24.9915 8.72358 -0.268383 9.5018 -0.597064 
22870 4 7.80675 21.6814 9.76784 -9.88101 13.0375 -13.7281 
22781 1 10.8959 21.6885 11.0129 -25.3767 -19.1543 21.4519 
22868 2 7.76545 27.7412 10.1816 38.9098 98.3106 38.832 
22867 2 7.78902 23.2324 9.92461 54.1837 190.414 69.606 
22381 7 12.0152 26.341 8.4485 11.1568 9.2735 -1.11888 
20253 3 13.4682 23.4016 8.82795 -29.7897 -27.7173 6.92472 
22380 7 10.8121 26.2531 7.54966 0.07463 0.106732 0.0986451 
22342 6 11.2091 25.8188 8.3988 -19.5223 -2.89137 29.3322 
20317 3 13.3219 27.8427 9.08682 -10.6158 -13.3926 -9.09118 
20248 2 13.7696 24.0294 10.2263 8.70571 4.40441 110.564 
20318 4 13.624 25.5447 10.0164 -29.4062 -19.1905 -43.5646 
20315 2 13.7788 27.0543 10.3348 52.1001 -13.9139 83.4751 
22865 1 10.6865 25.3992 10.9226 12.6233 11.2587 21.0704 
22872 5 9.17462 23.6871 10.462 5.32052 -15.7632 -13.7414 
22874 5 9.24947 27.6706 10.5948 6.74696 -9.72124 -9.75722 
20356 9 12.5954 23.6209 8.49206 10.3521 3.87881 -9.88524 
25431 7 14.1509 26.52 7.83751 1.09552 4.76666 6.69956 
20323 5 12.8525 23.6161 11.429 2.11793 -7.84623 0.662792 
25430 7 14.093 24.9955 7.86813 1.72674 4.76604 10.33 
25395 6 14.4016 25.7329 7.27378 -0.140661 0.0887344 -0.148084 
20258 7 15.2294 22.3163 8.12146 1.3713 0.123946 -1.43118 
20223 6 16.0015 21.7513 8.2238 -7.35517 -1.24191 9.13218 
20245 1 16.5342 21.695 10.8038 16.2211 20.8681 32.3321 
17698 4 19.4354 21.7483 9.56107 -12.2221 -3.98657 -28.379 
20320 5 15.2214 27.4242 10.856 4.37713 -11.3214 -15.6867 
20254 5 15.1801 23.5949 10.561 -15.8698 -11.5701 -20.633 
20329 7 17.2434 26.6466 8.28058 4.00246 3.23196 -3.67496 
20328 7 16.0419 25.8023 7.61998 1.70382 -0.00752853 -0.111183 
17803 9 18.6355 24.4714 8.19816 9.1566 9.25453 -0.636014 
20290 6 16.6573 25.8385 8.42977 -27.1022 -4.94807 8.40253 
17697 3 19.4666 23.9299 8.24968 -7.54217 -15.6568 7.49839 
17701 3 18.7572 27.5768 9.07536 -11.4624 -29.6511 -3.18515 
17695 2 19.6311 23.298 9.64847 2.68494 5.87702 77.6847 
17696 2 19.6976 27.9701 10.2409 33.8576 100.782 90.1754 
17700 5 20.9899 23.6351 10.1729 -17.4227 -7.53837 -18.7233 
17702 5 21.0953 27.3466 10.1236 7.65557 -13.7505 -20.5422 
17699 5 18.7076 23.7838 10.7613 -3.25357 -4.04244 -0.117803 
20229 1 17.0048 25.6018 10.9426 19.2133 14.8539 -1.27693 
17708 7 20.0702 22.1005 7.0657 -0.224356 1.40085 0.803646 
17670 6 20.1319 21.2549 6.64674 -0.766198 0.851801 -1.30053 
17707 7 20.7868 25.2363 7.6314 4.69769 4.93812 -0.0500464 
17706 7 21.1787 26.5559 8.43819 0.19074 6.54301 6.8856 
17671 6 21.5933 25.7538 7.94146 -0.570411 -4.93758 5.07226 
17804 9 18.1596 28.2261 8.79174 4.31391 -0.3471 -3.08065 
15302 9 22.12 22.0167 7.2663 -10.7383 2.28638 -0.631994 
15082 7 28.9341 21.4367 6.98265 -0.103702 1.92454 -3.00827 
15309 7 26.1711 21.1856 5.56242 -0.0509651 0.354461 -0.581451 
15297 7 25.7773 22.9358 5.36905 0.0251407 0.422453 0.039967 
15076 3 22.8653 21.7306 7.945 5.08645 -10.3514 6.57593 
15105 6 25.4296 21.9972 5.7434 2.50188 2.77863 8.74213 
15067 1 28.5009 21.8246 10.3102 7.22835 14.0407 26.9171 
17603 1 22.8719 21.8054 10.3091 41.4187 31.1099 59.8679 
15070 8 24.6898 21.8654 7.53391 8.59405 22.1181 -5.29866 
15157 7 24.761 24.7113 6.5409 0.10293 1.46598 -2.18737 
17693 1 22.4585 25.6458 10.3024 35.1303 46.6791 62.6091 
15118 6 24.3516 25.0692 5.80024 0.214728 -0.0191487 -0.080391 
15156 7 23.4675 25.4068 6.08223 0.348559 0.0671256 -0.0153258 
12750 9 28.7793 27.0604 8.02173 -18.1158 -1.29548 -3.42593 
15145 3 25.8709 28.1424 8.32624 -25.2116 -10.1491 23.8597 
15077 4 25.2347 23.1977 8.50469 -14.833 -21.83 -12.0089 
15146 4 25.5466 25.6818 9.29943 -7.88408 17.8158 -16.2088 
15143 2 25.8227 27.2278 9.63665 34.2247 58.1904 43.2312 
15071 2 25.6377 24.1622 9.58877 43.0724 137.597 70.2583 
15078 5 27.0823 23.775 9.8664 3.43551 -1.72285 -12.3167 
15148 5 27.2019 27.5255 10.2775 11.4226 -13.3409 -16.0043 
15051 1 28.9278 25.6837 10.4438 0.511271 13.1599 52.7879 
15147 5 24.7278 27.7419 10.5663 3.64177 -2.16909 -7.93474 
12524 3 29.1596 26.0649 8.01414 -11.3423 -1.35322 8.84887 
15045 6 29.2043 21.7754 7.82857 -18.5599 -11.1348 5.18088 
15251 9 25.5134 27.6474 7.63837 -0.0770791 -0.287542 15.5184 
15151 5 24.6677 23.8201 10.7274 -5.09489 -8.23327 -14.6276 
25272 7 0.556036 4.51116 16.1263 2.36815 0.640634 -0.656616 
25198 5 4.5419 2.55475 12.6561 -17.5719 -9.88257 -10.4075 
25195 5 4.3158 -1.09258 12.7632 -1.39324 -2.58855 3.49002 
25511 9 0.0796592 0.751054 16.3505 -21.1118 4.44067 1.20555 
22635 1 6.05896 0.692999 12.8525 -18.91 -3.59017 -14.7387 
25268 5 2.06322 2.89899 12.9931 -0.0912066 -10.4762 -22.4297 
25258 1 0.250924 4.4912 12.7638 -1.55742 -3.89585 1.63863 
25207 1 0.476342 0.786529 13.0733 11.499 39.2402 29.197 
25191 2 3.47612 3.03985 13.5769 25.2604 -6.92132 55.1633 
25263 4 3.57926 4.53329 13.9916 -30.3083 -6.34288 -38.0069 
25197 4 3.26023 2.0922 14.7531 -16.7611 -37.1458 -22.6644 
25192 4 3.04502 -0.482259 14.848 -9.31433 -10.1906 -2.79746 
25196 3 0.657113 0.885098 15.4599 22.6487 -15.378 20.0682 
25190 8 2.55866 0.92671 15.845 -8.27936 14.8055 -27.3828 
25240 6 3.77998 0.977343 17.3719 -7.9249 0.298409 18.4765 
25519 7 3.67881 0.0794428 18.0143 1.55994 8.47165 -11.7598 
25507 7 3.68212 1.7644 18.0844 6.30481 2.00017 -1.84491 
22649 6 4.2944 4.09512 16.607 -22.9512 -6.39607 -34.4303 
25308 6 0.112675 4.5309 15.2988 -21.5965 -8.6051 -7.43059 
25270 6 1.5684 4.11973 17.7258 -8.62475 -2.20649 1.51243 
25310 7 1.59366 4.71861 18.5213 -0.883583 17.9978 12.976 
22655 1 6.37544 4.67075 12.8239 -10.0948 4.08679 1.43497 
25194 5 1.89442 -1.62182 13.1754 -0.0937051 -13.2369 -19.617 
25189 2 3.31878 -1.5892 13.8009 51.9103 106.234 95.5808 
25309 7 2.48927 4.09331 17.3686 19.5128 -1.02524 -1.6979 
22683 6 6.30635 0.815888 15.3167 -7.01416 -12.6615 -6.68238 
22684 7 3.85468 3.56088 15.8898 4.75577 10.3399 12.7436 
22644 3 6.94056 4.40172 15.2194 32.6241 -16.6288 11.1025 
22685 7 4.3929 4.95165 16.1425 1.44647 6.11417 3.96491 
20062 7 8.1017 0.431315 18.609 -11.0951 0.370507 24.8674 
20061 7 6.68365 0.304407 18.1031 6.0533 0.843663 -2.02577 
20023 6 7.5274 0.768694 17.9609 -18.0999 -14.3364 -43.0425 
25472 9 2.0884 2.79319 18.8305 0.91594 5.13789 -46.279 
22959 9 6.44302 3.91436 15.945 -15.8658 3.19965 -2.85031 
22651 7 5.33789 0.795465 15.5153 7.35399 3.87691 -4.11358 
22650 7 6.73099 0.791185 16.2195 1.77657 2.21325 10.0768 
25236 7 0.368404 0.990213 19.0235 11.1405 9.59307 -2.25078 
22759 7 4.87325 4.20317 18.2807 3.49867 2.62686 11.1843 
25201 6 -0.149187 0.181565 18.738 -21.3907 -15.177 -7.51219 
17474 7 17.1531 -1.97641 15.5136 1.87121 -12.1427 -6.35612 
25465 9 2.69844 28.4099 18.7618 7.85309 9.41482 40.1246 
24946 6 -0.355475 27.2456 16.1213 -43.7901 -14.7571 26.2405 
25237 7 0.344164 -0.545992 19.0519 -0.66158 -1.88485 -2.77488 
22717 6 5.46086 4.20316 19.1197 -7.62697 -13.3673 -4.23213 
25227 3 2.71042 -1.60589 19.1148 -21.1785 -28.4877 14.2466 
25311 7 -0.610234 3.58508 18.1541 4.7609 0.843383 -2.22732 
22919 9 7.61402 2.29829 19.1152 2.58731 5.40914 -9.35725 
20022 6 13.9449 0.387924 17.1899 -4.97267 -25.6799 -5.27949 
20101 7 9.70251 1.83959 16.1106 2.84971 7.23861 -0.438785 
22931 9 10.0699 -0.424315 15.6419 7.61352 31.9358 53.1551 
22643 5 10.3472 2.57234 12.1955 -3.25478 -4.53006 -8.55344 
20083 1 12.0539 4.57824 12.2941 22.2283 12.3059 25.0026 
22642 5 7.78438 2.32799 12.6693 -0.916594 -9.14324 -21.1301 
22572 5 10.3915 -1.19034 12.4814 -0.481281 -6.82263 -3.92667 
22647 5 8.01803 -1.15376 13.3887 11.4354 -10.8525 -20.1462 
20029 1 12.4935 0.818447 12.5759 4.59693 12.5263 -11.6434 
20095 5 13.8672 2.81253 13.0198 -2.47504 -11.4076 -13.7534 
22637 2 9.23854 2.21284 13.1776 47.2128 101.577 71.6004 
22565 2 9.47766 -0.798971 13.6553 30.0749 39.6844 43.6857 
22641 4 9.6135 0.790931 13.697 -24.8627 11.5871 -34.3831 
22640 4 9.10375 3.21619 14.2882 -16.1806 -26.0806 -9.3198 
20060 6 12.4717 1.15354 15.0747 -8.40508 -8.63845 -1.19574 
20025 7 11.4857 0.88818 15.2558 24.2814 2.7634 -1.1445 
22638 8 8.85845 4.47016 15.4723 52.4121 35.5796 32.5449 
20024 7 12.8376 1.17682 16.0181 1.36645 1.6315 9.92791 
22688 6 9.84298 4.45105 17.1642 -0.117059 -3.59508 23.1377 
20130 6 10.0974 1.09303 16.5921 -32.4624 8.26788 -10.2378 
20016 5 13.8732 -1.10957 13.0216 2.34768 -14.8908 -20.9265 
20100 7 9.28586 0.80499 17.0698 13.7342 -2.84491 -2.52441 
22967 7 10.353 3.55478 17.4984 11.2212 13.0587 6.67363 
22571 3 9.82852 -1.25144 15.07 -17.8457 -11.9383 7.77767 
20064 7 14.3809 0.136236 18.0308 2.60138 29.2038 8.85936 
20096 6 11.5047 0.409867 19.1286 -20.0012 -7.71772 -9.46188 
20135 7 11.7348 -0.194419 18.4298 5.93109 -0.773922 -2.01815 
20134 7 11.0592 1.11691 18.569 6.82903 5.68328 3.84535 
20366 9 13.9502 1.57652 19.2611 1.45547 27.7758 45.7881 
20063 7 14.3788 -0.154802 16.5312 -2.99136 3.71099 -12.4371 
20379 9 14.485 1.66785 15.2587 7.26131 22.1828 29.3599 
20098 7 11.9274 4.61626 19.3326 4.48677 2.12781 -2.39864 
22955 7 9.38541 4.82615 18.0169 -1.25037 1.25034 -20.6258 
12549 7 29.3435 21.6616 16.6913 11.4998 -2.36701 -5.44422 
20131 6 11.4755 3.75786 19.168 -30.9438 -11.0011 18.0586 
20378 9 15.4007 0.0444891 14.8487 -3.31547 54.408 31.0294 
20012 2 15.2359 -1.61828 13.5115 14.1753 -92.3594 69.8276 
17469 5 19.9364 -1.30131 13.4326 3.43016 -11.0332 -10.32 
20017 5 16.2815 -1.21496 12.5395 6.82727 -2.02987 -8.76847 
20020 5 16.2894 2.4578 12.6312 0.566473 -4.50743 -7.91076 
17477 1 18.4308 4.50707 12.7514 49.5618 43.3547 54.1453 
17458 1 18.218 0.637135 12.871 45.5772 34.2202 9.98342 
17464 5 19.9587 2.61017 13.0923 -5.38391 -11.8732 -16.4848 
20014 3 15.3481 -0.927596 14.9324 -27.4612 -17.1569 29.0274 
20013 2 15.2355 2.86552 13.6686 25.5683 -31.8157 67.342 
20089 4 15.4847 4.41259 13.8828 -10.057 13.8625 -17.4072 
17460 2 21.2934 2.30374 13.8302 67.7147 167.508 84.5641 
17386 2 21.2555 -0.760946 14.0881 53.2676 99.8017 42.8956 
20019 3 15.3459 1.91397 14.9155 -17.9017 0.242115 15.383 
17466 6 17.9278 0.17532 15.3872 -37.1514 -34.0475 -1.53213 
17494 7 16.9814 -0.0459541 15.5625 -1.43089 1.49769 -10.2829 
17493 7 18.3494 -0.286229 16.0993 2.93181 1.95021 -5.33764 
17471 6 18.0873 2.49892 16.9585 -39.0461 -30.1536 -7.94909 
17510 7 17.9821 1.78654 16.2641 5.02374 13.2202 1.04526 
17509 7 19.0131 2.47321 17.2173 5.61413 -3.27119 3.94848 
17463 4 21.2166 0.803669 14.1626 -9.83994 10.4225 -21.6506 
17508 6 18.6631 4.54295 15.2048 -13.1798 -14.0994 -2.9888 
14959 7 20.0535 -1.1112 18.1828 0.560311 7.90205 11.966 
14960 7 19.9206 0.360669 17.6472 -0.541396 16.157 7.57197 
17391 3 21.6407 -1.30101 15.4678 -29.5127 -31.5909 10.8889 
17825 9 21.1484 -0.897173 16.1673 -1.98826 -1.0072 63.7812 
17462 3 21.3695 3.03634 15.1887 -15.8146 -21.8217 7.6332 
14918 6 19.9455 -0.580333 17.3342 -9.14873 -2.41822 -15.0977 
17826 9 21.213 3.9889 15.0648 -1.29854 34.5495 -5.44753 
17544 6 16.5911 4.20176 18.6598 -12.3842 -13.1166 3.88716 
17582 7 17.1537 3.51291 18.3063 0.565738 2.72888 -1.83923 
17456 7 15.906 0.924769 18.8035 9.38128 12.0955 -3.03101 
17457 7 17.2638 1.08439 18.1451 0.856447 10.1872 -0.263504 
17503 6 16.7869 0.463545 18.7385 -10.3216 -11.6402 8.66457 
17583 7 15.7317 3.80176 18.6411 -4.75662 3.69235 -1.18521 
17499 3 20.2879 1.93956 18.9364 -20.8789 -16.2101 -42.9953 
14905 7 21.7644 4.56076 18.7418 1.96461 0.888018 -10.1616 
17813 9 20.8156 2.74072 18.878 0.654459 -3.31288 -41.8282 
17473 7 19.5159 4.9882 15.4048 9.43034 3.00889 -7.26919 
17472 7 18.4701 3.93128 15.9951 4.27253 12.7487 3.71577 