ITEM: TIMESTEP
530000
ITEM: NUMBER OF ATOMS
25517
ITEM: BOX BOUNDS pp pp ff
-3.8959205201285124e-01 6.0088135642019459e+01
-1.9452389155355383e+00 5.9115524189537531e+01
-1.2206056431032383e+01 1.1390111600702880e+02
ITEM: ATOMS id type x y z v_stressx v_stressy v_stressz 
25292 7 5.89857 3.03966 7.5916 -2.43982 -8.49488 -6.14171 
25293 7 5.98077 1.53035 7.7064 -1.88392 -5.90275 -1.85687 
25252 6 5.35811 2.25094 7.51796 -6.36899 -3.24737 0.158076 
25287 5 0.61597 0.755495 10.7564 7.74473 -1.58318 2.76207 
25283 5 2.94291 4.2301 9.842 11.1042 6.62611 -12.7552 
25281 4 1.3887 2.44216 9.07367 -12.6419 1.82553 -16.8605 
25280 4 1.07853 5.00258 8.46007 -12.783 -8.46464 -6.90607 
25277 2 1.45655 3.94107 9.49571 51.1656 37.2456 80.1611 
25215 5 2.99957 0.588718 9.72621 -14.6072 -10.1802 -11.9506 
25209 2 1.59287 0.935181 9.44522 7.478 -57.4078 73.6698 
25188 1 4.8243 2.58953 9.97468 5.13943 1.30095 14.3398 
25214 3 0.796635 0.0137284 8.44439 -1.68163 -4.37678 2.0365 
25282 5 0.520916 4.37471 10.6565 -15.3618 -14.4416 -18.354 
25458 9 1.40812 -0.435335 7.83607 0.0217205 2.06695 1.70231 
25206 1 4.52732 -1.17961 10.115 34.7513 38.0052 20.5077 
22660 5 6.52822 0.875659 10.2203 -1.22652 -5.76023 -15.7036 
22735 5 6.623 4.87348 10.5536 2.39136 -8.97451 -14.3143 
25505 7 1.83983 5.65447 5.50835 -0.0554806 -0.159069 -0.295512 
15305 9 23.2521 22.7316 19.1215 7.86216 3.26716 -1.71886 
22662 3 7.17647 4.29529 8.22411 -12.1014 -23.0812 -18.4907 
22658 3 7.30314 0.346889 7.89736 -14.9583 -15.2392 -11.4742 
22905 9 7.65252 -0.485879 7.46068 0.0207372 -0.41562 -4.48558 
22906 9 7.50322 4.57024 7.35908 -2.74161 4.31748 9.68704 
20115 7 11.1372 2.292 6.49758 0.445091 -0.0068061 -1.16092 
22656 2 7.7059 0.365729 9.40584 21.8466 74.3584 62.5416 
20116 7 12.1136 2.88755 7.40659 19.6525 6.68648 2.51562 
20078 6 11.1398 2.86581 7.23657 -15.9187 -11.6208 1.99103 
20106 3 13.741 4.72985 7.46261 -15.6389 -10.9532 42.6031 
22657 2 7.60419 5.1024 9.41016 54.3478 -16.2524 21.7814 
20036 3 13.619 0.47741 7.57109 -16.5337 -19.5477 16.8353 
20107 4 13.6664 2.6833 8.8298 -17.9533 -14.0869 -34.0998 
20104 2 13.8784 4.18168 8.97251 31.3626 36.0518 94.8561 
20031 2 13.7132 1.1448 8.96008 62.2737 164.003 14.7387 
20108 5 12.6966 4.70757 9.81807 14.6335 11.9768 1.30936 
20112 5 12.4932 0.846951 9.91178 11.1403 -0.279431 6.7026 
22654 1 10.4859 2.78478 9.68506 11.3255 10.1254 11.8386 
22661 5 9.03983 1.11007 9.56315 -7.58897 -6.5884 -16.473 
22663 5 9.10858 4.7108 9.73761 4.34335 -12.7545 -15.5008 
22563 1 10.886 -1.13469 10.1589 0.137156 -0.638633 -8.59323 
22659 4 7.7627 -1.12896 9.68153 -9.41752 -34.7673 -34.8944 
22629 6 11.3751 -1.065 7.76545 -16.7369 5.07725 2.75776 
22669 7 11.9249 -0.207968 7.44815 1.29948 5.2109 -1.32143 
20352 9 13.8605 1.22514 6.87465 0.714424 12.5335 14.6523 
20189 7 14.2777 3.18994 6.51456 0.273953 13.5158 8.3666 
20353 9 14.543 5.23857 7.22704 7.72715 13.2011 16.7897 
20148 6 14.5671 2.45013 5.87332 0.144532 0.0574467 0.0976107 
22740 7 11.2703 5.5881 6.8279 3.28932 1.48445 -1.19134 
22738 7 8.76742 5.41578 5.90114 -0.688793 0.703456 -1.35596 
22701 6 7.85394 5.37142 5.69312 0.481716 -0.330439 7.87186 
22739 7 7.886 4.86164 4.87022 -0.0111257 0.0203667 0.00862048 
22670 7 11.9327 -1.89861 7.72342 1.04844 1.6414 -5.33239 
20188 7 15.4435 2.20345 6.22553 0.813756 -0.137565 0.0761521 
20037 5 15.0057 0.565552 9.66218 -0.872044 -6.91272 -13.159 
20118 7 17.8719 2.63796 7.70159 5.6597 -0.358201 -2.94901 
20117 7 17.6995 1.17882 7.44002 3.01442 2.53665 -4.73082 
17799 9 19.455 -0.241526 7.33338 0.305582 6.59219 17.8849 
20077 6 17.1284 2.01775 7.60787 -23.2009 2.48364 26.8003 
17484 3 19.536 4.02271 8.03155 -4.23198 -2.52947 -2.43533 
20109 5 15.1822 4.68195 9.53593 -5.68905 -7.27728 -17.4044 
17480 3 19.3808 0.510653 7.95906 -16.4173 -31.9921 10.969 
17478 2 19.7385 0.13463 9.405 32.5783 34.4051 48.7476 
17479 2 19.7269 4.90401 9.32133 46.5838 112.425 60.7117 
17485 5 21.0972 4.45706 9.83859 5.04332 -15.7102 -16.3453 
17483 5 21.125 0.57616 9.92672 5.08657 -10.0424 -13.6663 
17482 5 18.7273 0.612358 10.4453 0.992126 -3.63037 -5.67249 
17560 5 18.5746 4.39351 10.2378 -1.19707 1.77595 -12.0585 
20011 1 16.7883 2.43064 10.1919 50.6129 45.7931 52.5473 
20028 1 16.5417 -1.33752 10.1131 23.6623 17.222 10.3433 
17481 4 19.613 -1.37684 9.30614 -12.3049 -19.7725 -38.2333 
17800 9 20.2785 3.41394 7.96437 0.309941 -2.90789 -5.45957 
20002 6 16.2002 -1.21507 7.53432 -10.4439 -7.51384 13.5769 
20044 7 15.5857 -0.449442 7.68688 4.34027 8.57692 -2.93084 
20043 7 16.3516 -1.12082 6.60323 0.283165 0.200616 -0.841136 
17377 6 19.8786 -1.6773 6.3322 0.248053 -0.138318 -0.00511455 
17415 7 20.5742 -1.92657 6.98281 2.84394 2.46754 1.99623 
14864 7 23.6314 3.83266 7.75133 5.57747 -4.71095 -1.47974 
14825 6 23.2988 2.969 7.82153 -9.25703 -3.78757 1.41027 
14863 7 24.1611 2.53617 7.90018 3.87146 -1.33163 -0.571918 
17476 1 22.5994 2.5974 10.2549 -65.442 -40.977 59.6063 
14928 3 25.5679 4.59148 8.20809 -31.4293 -49.8006 -46.7852 
15246 9 24.7065 0.00657495 8.04332 7.97325 10.7874 20.111 
14856 3 25.5405 0.383335 8.16649 -12.6064 -14.7957 10.5699 
14929 4 25.6618 2.47021 9.27814 -17.7278 -35.0865 -33.8866 
14851 2 25.7726 0.935136 9.6021 19.5055 -189.891 75.8897 
14926 2 25.8313 3.99121 9.61155 28.526 145.899 89.4764 
14857 5 27.172 0.513951 10.0212 -9.65125 -11.924 -21.0352 
14931 5 27.2703 4.30837 10.1061 -28.232 -11.441 -17.7579 
14832 1 28.9014 2.41808 10.4207 15.8335 12.4456 59.5519 
14930 5 24.8007 4.37565 10.6576 12.6443 -4.59016 -13.018 
14934 5 24.7275 0.511689 10.6576 4.68839 -3.81958 -0.751479 
17384 1 22.8636 -1.16741 10.5973 -4.15752 4.19478 -49.7102 
14848 1 28.7231 -1.43222 10.2624 14.2839 18.5418 -25.7285 
14898 6 29.1786 2.45721 7.88738 -13.6476 -15.3219 6.24551 
15247 9 26.3681 4.66526 7.72718 -1.61469 -1.09647 -15.3054 
14826 6 28.1456 -1.3901 7.71182 1.40861 -3.54817 26.3788 
14861 7 27.5228 -0.59177 7.7367 4.99026 5.86671 -2.19754 
14862 7 28.7608 -1.17174 6.9734 0.154928 0.0384603 -0.0639559 
17565 7 23.8543 5.62398 7.62904 12.5162 3.71139 -1.58558 
17491 7 23.3409 -0.830267 7.25909 0.0964781 0.0702414 -0.460858 
12347 6 29.4782 5.3719 8.00631 -15.264 -7.1008 4.0063 
14939 7 29.2544 3.33895 7.63004 0.445033 -0.928309 -1.21845 
17492 7 24.1978 -1.77871 8.08715 8.19433 2.42391 -6.13506 
17450 6 23.2929 -1.42611 8.02021 -21.5525 -6.89839 18.9036 
25291 7 5.22591 6.53661 7.32751 1.18439 1.64415 -3.18052 
25290 7 3.82687 6.55555 6.86919 -0.68956 1.66428 -4.39755 
25253 6 4.33607 6.71227 7.63615 -9.55683 -11.5245 2.09866 
25517 7 1.84279 7.29014 5.50902 -0.026012 -0.053886 -0.553301 
25313 6 1.21101 6.45671 5.78137 6.04006 -5.4723 30.299 
25362 7 1.19888 10.608 6.31952 -0.0145892 -0.000781197 -0.0289781 
25275 1 4.36027 6.50413 10.1833 4.0398 13.1166 11.2118 
25278 8 0.639374 6.49188 7.63496 53.0869 32.0279 10.1747 
22958 9 3.89074 10.3239 7.2783 -3.46428 1.52099 0.237751 
22732 3 4.70032 10.3548 7.96195 2.38371 -12.7248 13.5001 
25359 5 0.701437 8.49354 11.0939 -9.97121 -10.1746 -17.1852 
25356 5 3.08021 12.146 10.2169 9.72711 -0.0754448 -13.6666 
25355 5 0.535314 12.2845 10.6518 -2.83945 -5.56081 -8.6597 
25354 4 1.48185 10.2856 9.54639 -13.7266 13.6922 -27.287 
25353 3 1.39194 12.6945 8.41831 -14.7981 -9.82316 2.25684 
25351 2 1.63225 11.8296 9.72046 39.3693 48.4857 68.1282 
25286 5 2.93236 8.28049 10.0288 -5.52038 -16.0391 -19.2056 
25285 4 0.892127 7.85648 8.74192 -20.6891 -18.6202 -4.69454 
25279 2 1.49492 8.71367 9.83417 16.3489 96.9613 77.8912 
25259 1 4.86194 10.2149 10.3927 7.75796 9.20143 56.3421 
25327 6 1.60703 9.7444 6.34125 2.31927 1.23002 -0.698487 
25363 7 1.38635 9.50649 7.2315 0.503275 2.83897 1.46747 
22807 5 6.5607 12.2849 10.8694 -15.582 -14.428 -18.048 
22730 5 6.65234 8.34528 10.5398 -4.81887 -14.8436 -13.9543 
22726 8 6.48614 10.4372 7.49213 -1.73268 17.9031 -26.56 
22761 6 7.05704 10.8316 5.66761 1.75221 2.50619 6.86067 
22733 4 6.9844 11.7221 8.61372 -10.9003 -12.6464 -2.67399 
2035 7 -0.341323 13.2157 8.123 11.5927 0.50609 -3.45075 
22728 4 7.23016 9.05362 8.29312 -12.8337 -20.3154 -5.78928 
22953 7 7.91026 10.1976 5.3838 -0.0662079 0.100211 -0.652642 
22965 7 7.33207 11.8331 5.45166 -0.0481624 0.141828 -0.277657 
22741 7 11.5 7.01103 7.05421 2.60806 -0.0298995 -1.58007 
22700 6 10.8104 6.36788 7.23855 -16.1364 -2.12746 18.5636 
22636 1 10.9188 6.69179 9.82281 4.13025 9.2136 12.6082 
22729 4 7.48133 6.61374 9.11192 -11.2525 -8.49915 -27.4766 
22668 7 10.5831 8.59932 7.42923 1.90837 4.3499 -3.22893 
22725 2 7.70374 8.13304 9.39568 26.987 31.8391 97.6363 
22727 2 7.53968 12.6129 9.75953 17.2008 132.853 82.41 
22630 6 10.7174 9.56513 7.55044 -8.18901 0.73166 5.39554 
22667 7 11.6785 9.56 7.58776 1.26542 0.728835 -1.35017 
20110 3 13.3722 8.00482 7.87861 -10.9428 -1.16785 -3.72559 
20176 4 13.3404 12.979 8.33811 -6.56949 -6.94802 -4.0396 
20177 4 13.5478 10.5013 8.95979 -6.21764 -0.296236 -16.5204 
20173 2 13.7057 11.9908 9.40771 33.4686 -5.08156 77.7871 
20105 2 13.7244 8.93675 9.12343 -2.34286 6.79924 86.481 
20178 5 12.5598 12.2564 10.4158 -7.68797 -12.5349 -22.4942 
20183 5 12.8988 8.51128 10.3587 -3.59738 -11.1054 -7.55926 
22734 5 8.97942 12.4092 10.1072 -12.522 -12.5325 -17.7909 
22723 1 10.5486 10.4168 9.97488 -3.04813 4.04284 10.1539 
22731 5 9.11607 8.33188 9.85191 -15.5866 -24.4267 -22.5295 
20354 9 13.8366 7.1662 8.02076 -1.1836 -12.3066 -25.4776 
17489 7 15.3685 7.53149 7.27379 -6.22006 -2.27407 -3.7812 
17490 7 16.4114 7.08597 6.51817 -0.225353 0.033465 -0.311994 
17451 6 15.9423 6.78743 7.29642 -18.6635 -17.2085 17.4751 
17555 4 19.5148 6.40419 9.24816 -10.8019 2.48665 -18.7212 
20102 1 16.4765 6.46221 9.86905 10.766 -0.00324389 18.7221 
20179 5 15.0791 12.3713 9.86379 2.59274 3.66481 -11.9836 
20111 5 15.0953 8.51182 9.52882 -26.1878 -13.9012 -15.0467 
17802 9 19.4832 11.878 7.51898 -0.110089 -0.097378 0.169326 
17554 3 19.6317 8.68088 7.9737 -1.85111 -5.30276 6.14708 
17801 9 19.3812 9.57046 8.10065 0.615563 12.1562 6.38008 
17558 3 19.3121 11.5602 8.35726 -4.06031 -2.1929 -0.703455 
17552 2 19.7279 7.97853 9.40881 24.7606 58.3338 62.2777 
17553 2 19.7446 12.5897 9.5152 42.4635 42.8756 69.3735 
17559 5 21.2085 12.1329 9.83297 6.89079 -0.451221 -10.8778 
17557 5 21.1128 8.33065 9.93016 0.900216 -11.7502 -16.0568 
17556 5 18.49 8.44005 10.194 12.6546 -3.93691 -6.35813 
17631 5 18.754 12.2185 10.6826 2.01511 -5.33578 -4.51764 
20084 1 16.8199 10.2664 10.3615 -11.0645 -4.22315 -0.779089 
17566 7 22.7737 6.49197 7.09029 0.0937053 0.0181409 0.0493541 
17525 6 23.2369 6.30614 7.97014 -29.8306 -5.90251 16.996 
15249 9 26.4199 12.3989 7.50271 0.84519 0.68794 0.271305 
14924 1 28.8784 6.30371 10.2599 25.1503 19.912 7.42162 
17459 1 22.8153 6.36449 10.4136 -82.9166 -68.4274 38.9663 
17550 1 22.6813 10.1773 10.109 18.8751 17.6643 8.71223 
15248 9 25.0074 7.30471 8.25379 6.71929 8.87614 8.88185 
15002 3 25.5553 12.1132 7.86039 -4.86677 -8.83849 8.54466 
14932 3 25.8534 7.69566 8.37038 -4.5984 -4.1943 1.18447 
15003 4 25.6929 10.0578 9.40228 -8.86001 -5.89815 -23.6804 
15000 2 25.8234 11.5586 9.33827 29.148 103.254 75.3071 
14927 2 25.9265 8.52626 9.67582 38.8186 66.7267 74.4959 
15005 5 27.2586 12.0307 9.65026 -1.75417 -12.6925 -17.5068 
14933 5 27.3368 8.19806 10.2714 9.50529 -13.9994 -17.759 
15004 5 24.794 12.1885 10.2281 1.36601 3.23353 -11.8762 
14907 1 29.0423 10.186 10.3202 23.7892 18.8259 22.9943 
15008 5 24.7476 8.17989 10.6591 15.8659 -0.247056 -2.25121 
14899 6 29.4402 9.94521 7.67407 -3.21524 0.0452184 5.4248 
17637 7 24.0129 13.1402 7.48134 1.61192 0.647223 -0.171012 
25427 5 0.471403 16.2254 10.9577 6.11897 -3.47518 -4.29346 
25424 5 3.05777 19.7432 10.2643 -15.0349 -6.34702 -9.81901 
25423 5 0.62854 19.9386 10.7649 4.01568 -4.55116 -10.7326 
25422 4 1.53223 17.8586 9.5283 -9.73296 7.01621 -14.2912 
25421 3 1.35286 20.1653 8.46116 -3.21203 -2.5721 -0.0357874 
25419 2 1.68921 19.4163 9.80763 -41.5182 139.974 64.7516 
25358 5 3.0433 15.9649 10.3935 6.07388 -0.997352 -11.7769 
25352 2 1.62447 16.359 9.9389 56.8319 1.14349 37.9758 
25333 1 4.76049 17.9652 10.8964 -5.06368 13.1368 -8.55045 
25357 3 1.27516 15.4524 8.77037 -12.1585 -16.4205 19.0376 
25460 9 1.6173 15.8283 7.87293 0.101247 0.363019 4.18944 
25349 1 4.58657 14.1062 10.6957 6.51006 16.4292 -19.8624 
22803 5 6.49129 16.0975 10.8756 1.22558 -0.837443 -1.07792 
22875 5 6.46084 20.071 11.1158 20.1155 7.8774 12.7306 
25459 9 1.48999 13.6574 8.56205 -1.71059 3.90585 -4.04637 
22801 3 7.03055 16.5942 8.55987 -2.28525 -6.96316 3.99939 
2179 7 -0.387305 20.8468 8.22815 14.4195 2.22149 -6.37265 
22805 3 7.32975 19.3599 8.91011 -8.57108 -8.6412 25.72 
22908 9 7.54595 19.9046 8.12021 0.00730188 0.258371 6.54145 
22774 6 7.84223 14.1301 6.46407 2.04263 1.27711 1.99182 
22907 9 7.21638 17.5067 8.66763 -0.0403986 20.2795 1.89685 
22800 2 7.69826 20.1918 10.1825 71.8608 58.3877 37.8304 
22810 7 9.52718 17.6319 7.67339 -2.0462 0.948077 -1.9863 
22775 6 10.3724 17.5576 8.1234 -17.983 -9.04558 6.27355 
22811 7 11.0269 17.744 7.42304 6.08258 1.04821 -1.19432 
20249 3 13.6146 20.1923 8.5115 -17.3692 -16.148 19.7227 
22799 2 7.50164 15.6895 9.76752 2.02569 21.5086 72.2761 
20181 4 13.1648 15.598 8.7498 -9.65033 -32.0166 -11.6864 
20250 4 13.59 17.8559 9.69511 -13.8276 6.75033 -27.7204 
20247 2 13.6446 19.4223 9.89672 2.7168 29.3502 69.75 
20175 2 13.7411 16.3389 9.95052 45.144 116.508 87.773 
20255 5 12.7826 16.0392 11.1348 -2.75665 -11.4816 -16.2387 
20251 5 12.5994 19.887 10.8751 -0.545032 -0.075765 9.25416 
22797 1 10.5866 17.8329 10.6706 3.43259 -1.72195 26.1447 
22804 5 8.85928 16.0465 10.2629 -4.61192 -11.0743 -14.3338 
22806 5 9.15709 19.6726 10.6518 26.3085 -12.5386 -11.63 
20209 6 12.874 15.0323 5.7533 0.477709 -0.36307 1.51995 
20174 8 12.7095 14.4625 7.54514 27.3226 10.9931 -53.9262 
22802 4 7.35344 14.1712 9.46207 -21.0489 9.41712 -29.2241 
22707 1 10.7485 14.2517 10.2767 12.0018 10.6855 -3.64935 
20180 3 10.8086 14.0423 7.95232 18.2644 -8.84204 4.93152 
20260 7 13.0324 18.8856 6.99744 0.13252 1.33286 1.26745 
20261 7 12.9162 17.3666 7.33817 -0.529099 10.6257 5.65845 
20401 7 13.4229 15.9899 5.62814 -0.161601 0.311916 -1.28404 
20406 9 10.0189 14.4108 7.4707 -1.28228 2.84405 -2.39318 
20413 7 11.9327 15.1884 5.26927 -0.068414 -0.0247308 -0.439292 
20222 6 12.7014 18.0477 6.67459 -0.750955 0.712307 -0.98256 
22813 7 7.7456 15.0607 6.62462 -0.0724101 -0.0494954 0.0559941 
22812 7 7.44152 13.8113 7.30537 0.735007 1.42935 6.43198 
17861 7 18.0327 18.1656 5.18632 -0.0414496 -0.0258121 -0.195344 
17849 7 19.1146 19.332 5.5722 -0.052574 0.152394 -0.565283 
17657 6 18.7692 18.3451 5.88217 -4.87089 -2.66416 15.1465 
20252 5 14.9691 19.7344 10.5394 -8.49898 -13.5478 -18.0712 
20182 5 15.2166 16.0409 10.213 -4.01887 -20.5551 -14.1446 
17622 8 18.5634 18.0799 7.75046 32.2438 27.8826 -14.3511 
17854 9 15.9449 18.6012 8.0719 -0.324158 2.01646 -3.31122 
17628 3 16.7563 18.0742 8.25458 4.09096 -9.95521 9.6743 
17624 4 19.3217 16.6826 8.46567 -7.77411 -11.5315 -3.59702 
17629 4 18.9827 19.4332 8.85904 -13.7658 -12.2745 1.18328 
17621 2 19.6951 15.6526 9.54627 46.1493 95.2793 81.8074 
17623 2 19.5501 20.2671 10.0023 53.3485 24.6321 77.0154 
17630 5 21.0316 19.7719 10.2793 12.554 -2.32256 -15.4836 
17627 5 21.1919 15.89 9.96206 1.03992 -17.9332 -16.7262 
20155 1 16.8424 17.9752 10.6946 1.55747 10.9501 -33.6689 
17626 5 18.7672 15.8963 10.7355 -8.55565 -8.94525 -12.1502 
20171 1 16.7158 14.1373 10.3208 4.96059 6.33567 -29.22 
17625 4 19.606 14.0957 9.12525 -6.00096 7.98036 -11.7104 
17564 7 21.4906 17.2833 7.58657 -0.595076 1.5573 -1.24486 
17703 5 18.6795 20.0258 11.2014 -15.1901 -11.9637 -21.157 
17709 7 19.905 20.6273 7.34679 2.92078 4.9787 4.37838 
20259 7 15.568 20.8847 8.4035 12.1485 3.54922 -2.39821 
17526 6 22.4132 17.452 7.70597 -7.55481 -6.64887 18.0679 
17563 7 22.8092 16.6576 7.3521 0.259845 0.339694 -1.92397 
17619 1 22.5682 17.9268 10.3236 11.3781 12.7691 -24.7715 
15250 9 25.4259 16.554 7.3496 3.25414 4.16211 70.4196 
15006 3 25.6058 15.7572 7.92658 -17.4021 -12.1717 55.0578 
15072 4 25.3173 20.4252 8.40544 -12.9299 -7.85983 -2.96456 
15073 4 25.9599 17.9542 9.15621 -15.7247 5.94448 -35.4407 
15069 2 25.8295 19.4844 9.52152 46.286 196.219 67.0676 
15075 5 27.2671 19.8707 9.91392 4.88229 -4.23948 -14.8404 
15001 2 25.8934 16.4473 9.39988 31.6446 22.5762 34.9952 
15007 5 27.2951 15.9854 9.7832 -0.590128 -10.4622 -16.0118 
14980 1 29.1857 17.8209 10.1444 -12.5099 -20.551 14.9672 
15074 5 24.8028 19.6389 10.6176 -5.91923 -5.16625 -19.5944 
15079 5 24.8396 16.1163 10.4638 8.99755 -3.5428 0.996481 
12533 7 25.4571 18.3754 7.23091 -0.367196 4.4582 5.97463 
17532 1 22.9834 14.1035 10.1761 9.68729 11.774 8.90928 
14998 1 28.6373 13.9834 10.0874 20.1789 24.6393 12.5075 
12492 6 25.1645 17.9196 6.43544 -1.27389 -1.71189 -0.907267 
12532 7 24.2391 17.8074 6.45162 -0.0702706 0.0101279 -0.230449 
17636 7 24.2982 14.6547 7.77674 3.19531 -4.72007 -4.35112 
17597 6 27.3956 19.7327 6.47718 -16.3141 -1.05843 1.17767 
17635 7 27.0344 19.9354 7.31032 6.31119 1.19867 -2.43706 
17596 6 23.5563 13.9987 7.66239 -11.432 -1.56153 4.38085 
14974 6 28.7308 14.0837 7.53935 -5.58954 -10.8599 7.07426 
17634 7 26.9707 18.9124 6.11254 0.287906 0.569496 -0.155138 
15084 7 28.6931 18.2675 6.90767 0.581894 2.77117 -1.55011 
15012 7 28.1952 14.867 7.30744 1.76026 1.79193 -1.71582 
15044 6 29.2899 17.8272 7.55162 -18.3336 -15.3852 14.4032 
15011 7 29.5706 14.1102 6.99075 5.03589 0.876116 -0.237138 
25461 9 1.63963 21.1191 8.56579 -0.44416 9.0142 -6.04393 
25417 1 4.459 21.7465 10.9217 -17.1914 -19.9803 -24.8639 
24923 5 0.754769 27.5218 10.9484 5.8871 1.84256 -2.86863 
25425 3 1.35108 22.98 8.77836 -10.5612 -8.34657 18.205 
24927 5 0.559259 23.61 11.1153 15.5735 -1.52293 7.76236 
25426 5 3.10363 23.8017 10.4009 3.5401 -9.48619 -9.35213 
25420 2 1.64879 23.9265 10.0018 35.606 98.2933 59.1121 
25401 1 4.97038 25.5329 10.7242 9.59007 4.86472 -19.586 
24924 5 3.18735 27.1766 10.4054 -6.35792 -6.13717 -14.2047 
24922 4 1.38256 25.4386 9.75254 -16.4346 10.2386 -17.133 
24919 2 1.7823 26.9563 9.95451 1.09841 144.459 60.9435 
24921 3 1.55556 27.7248 8.56562 -3.24245 -0.913781 8.38047 
25462 9 1.60156 23.3783 7.96981 -0.055408 0.11831 1.81407 
22871 5 6.64021 23.6959 10.9095 4.98343 -4.67311 -4.59044 
25451 9 2.36751 27.8615 8.13061 0.0520966 0.480604 1.54772 
22375 5 6.78156 27.3777 11.2762 2.28057 -3.94065 -3.3314 
20355 9 13.7553 21.1037 8.67011 -2.67638 21.3291 -0.880419 
22873 3 7.36095 26.8242 8.94079 -1.56792 -2.87326 22.634 
22910 9 7.83453 27.1872 8.16884 0.0149411 0.301391 5.20513 
22881 7 10.5673 22.2037 7.78641 0.176491 0.148523 -0.588743 
22880 7 12.0072 21.7432 8.22322 12.0979 4.42277 -4.51238 
22869 3 7.56442 24.0265 8.5961 -0.84606 -1.29567 0.697021 
22842 6 11.0399 21.8185 8.50693 -11.6508 -8.5229 2.53012 
22909 9 7.42422 24.9915 8.72358 -0.321806 9.49536 -0.575398 
22870 4 7.80675 21.6814 9.76784 -9.88861 12.9913 -14.5599 
22781 1 10.8959 21.6885 11.0129 -26.1092 -19.3754 21.9979 
22868 2 7.76545 27.7412 10.1816 37.357 98.2484 39.2275 
22867 2 7.78902 23.2324 9.92461 53.8447 189.546 71.7017 
22381 7 12.0152 26.341 8.4485 11.0386 9.15933 -1.55119 
20253 3 13.4682 23.4016 8.82795 -29.2909 -27.5062 7.27777 
22380 7 10.8121 26.2531 7.54966 0.0742922 0.105722 0.0958387 
22342 6 11.2091 25.8188 8.3988 -19.3733 -2.65584 30.0811 
20317 3 13.3219 27.8427 9.08682 -10.1428 -13.1115 -8.33544 
20248 2 13.7696 24.0294 10.2263 7.94838 3.70698 110.212 
20318 4 13.624 25.5447 10.0164 -28.9778 -19.1214 -43.6072 
20315 2 13.7788 27.0543 10.3348 50.2637 -14.8875 83.7459 
22865 1 10.6865 25.3992 10.9226 12.539 11.0633 26.094 
22872 5 9.17462 23.6871 10.462 5.3652 -15.3939 -13.7136 
22874 5 9.24947 27.6706 10.5948 6.79557 -9.8064 -10.1315 
20356 9 12.5954 23.6209 8.49206 10.2971 3.85896 -9.9033 
25431 7 14.1509 26.52 7.83751 1.071 4.73804 6.66363 
20323 5 12.8525 23.6161 11.429 2.20673 -7.77316 1.15581 
25430 7 14.093 24.9955 7.86813 1.66577 4.71574 10.2733 
25395 6 14.4016 25.7329 7.27378 -0.139199 0.0911548 -0.152782 
20258 7 15.2294 22.3163 8.12146 1.33405 0.11992 -1.45532 
20223 6 16.0015 21.7513 8.2238 -7.26041 -1.22442 9.18997 
20245 1 16.5342 21.695 10.8038 16.6442 20.4839 34.6543 
17698 4 19.4354 21.7483 9.56107 -11.9721 -3.77258 -28.7835 
20320 5 15.2214 27.4242 10.856 4.55058 -11.2124 -15.3975 
20254 5 15.1801 23.5949 10.561 -15.8503 -11.4821 -20.4238 
20329 7 17.2434 26.6466 8.28058 4.00728 3.2019 -3.72586 
20328 7 16.0419 25.8023 7.61998 1.70244 -0.0160034 -0.109979 
17803 9 18.6355 24.4714 8.19816 9.15346 9.19375 -0.711167 
20290 6 16.6573 25.8385 8.42977 -27.1287 -4.70436 8.76645 
17697 3 19.4666 23.9299 8.24968 -7.43665 -15.331 8.01936 
17701 3 18.7572 27.5768 9.07536 -11.3998 -29.4939 -3.42149 
17695 2 19.6311 23.298 9.64847 1.23553 5.5701 78.2329 
17696 2 19.6976 27.9701 10.2409 32.859 99.9207 93.6838 
17700 5 20.9899 23.6351 10.1729 -17.449 -7.86729 -19.467 
17702 5 21.0953 27.3466 10.1236 7.98864 -13.2891 -20.916 
17699 5 18.7076 23.7838 10.7613 -3.12665 -4.47872 -1.63057 
20229 1 17.0048 25.6018 10.9426 16.7112 14.9117 -57.3086 
17708 7 20.0702 22.1005 7.0657 -0.238471 1.39947 0.793592 
17670 6 20.1319 21.2549 6.64674 -0.74625 0.847549 -1.27217 
17707 7 20.7868 25.2363 7.6314 4.68084 4.90517 -0.0938278 
17706 7 21.1787 26.5559 8.43819 0.129784 6.47921 6.75264 
17671 6 21.5933 25.7538 7.94146 -0.390981 -4.69825 5.54085 
17804 9 18.1596 28.2261 8.79174 4.30421 -0.357998 -3.06635 
15302 9 22.12 22.0167 7.2663 -10.7642 2.2876 -0.67349 
15082 7 28.9341 21.4367 6.98265 -0.125305 1.91236 -3.13141 
15309 7 26.1711 21.1856 5.56242 -0.0514685 0.353977 -0.579307 
15297 7 25.7773 22.9358 5.36905 0.0247359 0.421819 0.0422508 
15076 3 22.8653 21.7306 7.945 5.18178 -10.2701 6.91382 
15105 6 25.4296 21.9972 5.7434 2.51326 2.79776 8.65253 
15067 1 28.5009 21.8246 10.3102 7.0905 13.6336 29.1294 
17603 1 22.8719 21.8054 10.3091 41.5808 30.9064 59.6178 
15070 8 24.6898 21.8654 7.53391 8.61186 21.9339 -5.94481 
15157 7 24.761 24.7113 6.5409 0.0938898 1.42562 -2.18113 
17693 1 22.4585 25.6458 10.3024 35.2318 46.8092 65.2892 
15118 6 24.3516 25.0692 5.80024 0.216359 -0.0160797 -0.0865296 
15156 7 23.4675 25.4068 6.08223 0.348031 0.0656058 -0.0125788 
12750 9 28.7793 27.0604 8.02173 -18.1452 -1.30812 -3.53265 
15145 3 25.8709 28.1424 8.32624 -24.9434 -10.1395 24.671 
15077 4 25.2347 23.1977 8.50469 -14.7344 -21.7811 -11.3859 
15146 4 25.5466 25.6818 9.29943 -7.80658 17.902 -15.1837 
15143 2 25.8227 27.2278 9.63665 33.7891 57.7839 41.1966 
15071 2 25.6377 24.1622 9.58877 42.2453 137.153 69.2789 
15078 5 27.0823 23.775 9.8664 3.50145 -1.473 -12.2449 
15148 5 27.2019 27.5255 10.2775 11.4732 -13.2733 -15.8471 
15051 1 28.9278 25.6837 10.4438 0.186128 13.1885 34.8305 
15147 5 24.7278 27.7419 10.5663 3.71421 -2.02776 -8.27448 
12524 3 29.1596 26.0649 8.01414 -11.2788 -1.26269 9.02112 
15045 6 29.2043 21.7754 7.82857 -18.6096 -11.0795 5.09552 
15251 9 25.5134 27.6474 7.63837 -0.0906542 -0.291918 15.5087 
15151 5 24.6677 23.8201 10.7274 -4.99381 -8.30008 -16.4721 
25272 7 0.511273 4.4367 16.2158 2.18503 -1.02735 1.57473 
25198 5 4.5419 2.55475 12.6561 -16.8324 -9.83648 -10.2317 
25195 5 4.3158 -1.09258 12.7632 -0.535554 -3.17624 3.41474 
25511 9 -0.0328873 1.70181 15.7986 -8.59993 5.95985 -1.11206 
22635 1 6.05896 0.692999 12.8525 -12.2896 0.620638 -9.51606 
25268 5 2.06322 2.89899 12.9931 -1.34568 -13.2685 -23.2948 
25258 1 0.250924 4.4912 12.7638 0.507683 -2.26028 4.47377 
25207 1 0.476342 0.786529 13.0733 9.56396 31.6353 16.6023 
25191 2 3.47612 3.03985 13.5769 23.625 116.642 59.2526 
25263 4 3.57926 4.53329 13.9916 -28.6238 10.2996 -36.4506 
25197 4 3.26023 2.0922 14.7531 -21.8801 -39.7592 -17.5703 
25192 4 3.04502 -0.482259 14.848 -9.59428 -16.48 -8.23277 
25196 3 0.669692 1.09451 15.2928 -4.16261 -13.1697 2.23419 
25190 8 2.46997 0.924695 15.7715 -32.1138 -14.504 -72.4518 
25240 6 2.86637 0.622194 17.582 -9.01231 -4.77978 -8.34101 
25519 7 2.74166 -0.311109 18.1013 0.622066 -1.04606 -19.1557 
25507 7 2.82497 1.39296 18.3696 0.880669 6.95176 -10.5582 
25308 6 0.0961472 4.3149 15.3526 -31.5036 7.53309 17.4375 
25270 6 1.52081 4.66699 18.0089 -12.3942 -0.0791865 -5.98241 
22655 1 6.37544 4.67075 12.8239 -6.07017 7.92651 -7.38826 
25194 5 1.89442 -1.62182 13.1754 -0.789446 -15.0372 -19.2127 
25189 2 3.31878 -1.5892 13.8009 46.1779 151.696 94.2473 
25309 7 2.43147 4.4409 17.5606 33.5858 -4.86619 -3.7219 
22683 6 6.07846 0.828549 15.3999 -3.92806 -9.80025 -0.835233 
22644 3 6.78931 4.69935 15.1547 13.9654 -12.9625 6.74792 
22650 7 5.34309 0.979745 15.9753 -6.21355 1.32698 -2.23913 
22959 9 6.21274 5.24482 15.8336 -14.1429 1.70036 -0.97819 
22649 6 3.91705 4.217 16.7726 -15.1299 16.4025 -24.7143 
22684 7 3.8305 3.40212 16.2148 0.00632821 0.777054 6.84087 
22687 7 6.30652 0.779301 18.788 6.0974 3.27921 -3.71963 
20062 7 6.53227 2.66269 18.0868 -0.0606458 6.46556 0.0338854 
25310 7 1.86852 5.32427 18.7039 0.203438 0.436871 2.31238 
22759 7 4.98351 4.75054 18.3409 3.65508 1.48113 9.49637 
22651 7 6.86658 1.1058 16.0077 4.94708 4.03862 7.60385 
22685 7 3.85373 4.92013 16.0584 -0.809179 7.41271 15.0553 
25472 9 2.14176 3.35219 19.2002 2.52669 10.3258 28.6981 
12753 9 29.6782 27.0913 18.3941 -30.7691 3.82809 -6.88388 
25476 9 3.41286 28.6474 16.3391 -0.765485 4.73421 29.7231 
15102 7 23.7343 21.0196 19.0225 2.48612 0.268814 -4.83541 
25312 7 -0.169941 4.6231 18.6737 11.6024 -0.917995 -0.497078 
22896 7 -0.550174 27.0971 18.378 3.07787 1.90474 1.60987 
20370 9 15.5137 24.974 19.2274 8.12099 3.76146 -4.94853 
20023 6 7.20258 1.95458 17.8689 -6.32018 -2.78501 -1.56484 
20061 7 7.79323 2.14851 18.6572 4.9813 6.74783 16.9995 
20022 6 13.3989 -0.948852 17.0212 -28.5611 -18.1312 -10.0295 
20101 7 8.49026 0.504175 17.2378 -1.73362 3.33658 -1.43164 
22931 9 9.63692 -0.634074 15.7571 3.40868 12.5035 73.7172 
22643 5 10.3472 2.57234 12.1955 -2.37656 -4.38638 -8.23804 
20083 1 12.0539 4.57824 12.2941 11.5017 6.81289 22.0408 
22642 5 7.78438 2.32799 12.6693 -1.84655 -7.49788 -19.2019 
22572 5 10.3915 -1.19034 12.4814 0.218488 -7.27725 -6.46119 
22647 5 8.01803 -1.15376 13.3887 10.9192 -11.3775 -17.6475 
20029 1 12.4935 0.818447 12.5759 -2.19977 2.85811 -16.0355 
20095 5 13.8672 2.81253 13.0198 -4.38352 -11.761 -12.9932 
22637 2 9.23854 2.21284 13.1776 44.1434 120.436 72.508 
22565 2 9.47766 -0.798971 13.6553 40.0739 40.5826 14.8762 
22641 4 9.6135 0.790931 13.697 -22.1492 13.0308 -28.4889 
22640 4 9.10375 3.21619 14.2882 -8.79731 -18.3874 -11.1569 
20060 6 12.4014 0.764887 15.1155 -19.9285 -17.6344 -0.821118 
20025 7 11.4767 0.511246 15.0356 5.13019 2.56949 -6.49529 
22638 8 8.65336 4.48295 15.4459 4.55825 27.7905 -29.2524 
20024 7 12.6694 0.543708 16.0226 0.797762 5.55228 -0.537022 
22688 6 9.56408 4.2589 17.0705 -1.05929 -3.87454 4.33707 
20130 6 9.35851 0.121442 17.2853 -14.1499 2.29678 4.78926 
20016 5 13.8732 -1.10957 13.0216 4.8811 -15.2373 -19.7426 
20100 7 9.33234 -0.657605 17.9021 -2.74134 6.18196 -1.65856 
22967 7 9.43662 4.91474 17.8918 -1.52698 -3.7574 -12.8544 
22571 3 10.0104 -1.28117 14.9956 -20.5829 -14.9333 14.902 
20135 7 12.1075 -0.0879195 18.3331 3.92798 3.30727 2.35839 
20134 7 10.9154 0.81111 18.4855 6.92621 1.48017 -0.0677313 
22955 7 9.36809 3.3198 17.6245 -1.03985 -0.313914 -6.55756 
20379 9 14.1514 1.68999 15.0209 10.1096 6.04173 -6.89686 
20064 7 14.1112 -1.05033 16.3564 7.78679 0.559263 9.16295 
20098 7 11.3862 4.33932 18.6713 1.08479 0.241137 -6.70591 
20063 7 13.7749 -1.16334 17.8907 4.09002 2.26642 14.2086 
20096 6 11.64 0.418897 19.0218 -19.3746 -9.05138 3.49049 
25271 7 -0.442081 5.19339 15.3618 16.1406 10.3004 -6.70415 
12587 7 29.3502 27.58 15.5107 23.1736 9.47472 -3.8367 
20367 9 14.7206 5.29116 18.7471 0.650997 6.63385 57.142 
17544 6 17.2542 3.85692 19.1374 -14.4808 -9.21844 -4.83801 
20378 9 15.4007 0.0444891 14.8487 2.77809 96.7837 30.2972 
20012 2 15.2359 -1.61828 13.5115 14.6909 -133.434 75.3652 
17469 5 19.9364 -1.30131 13.4326 -22.8686 -13.3122 -14.9615 
20017 5 16.2815 -1.21496 12.5395 11.8381 -1.70999 -1.00334 
20020 5 16.2894 2.4578 12.6312 -8.42511 -6.55584 -9.62946 
17477 1 18.4308 4.50707 12.7514 49.561 45.5808 60.9709 
17458 1 18.218 0.637135 12.871 57.0247 43.8821 8.54284 
17464 5 19.9587 2.61017 13.0923 -7.14839 -13.2739 -14.4427 
20014 3 15.3481 -0.927596 14.9324 -27.1614 -9.28623 36.825 
20013 2 15.2355 2.86552 13.6686 13.6084 -8.20833 72.8165 
20089 4 15.4847 4.41259 13.8828 -22.6294 2.46569 -25.5963 
17460 2 21.2934 2.30374 13.8302 63.2027 -110.716 65.0987 
17386 2 21.2555 -0.760946 14.0881 46.2497 127.913 27.9722 
20019 3 15.1116 1.95763 14.9951 -5.12753 -5.76794 13.3273 
17466 6 17.8421 0.694777 15.3528 -21.3544 -10.63 2.1434 
17494 7 16.9425 0.950292 15.6658 8.87667 6.0691 -2.38493 
17493 7 18.3218 1.3763 15.8741 0.209838 6.24937 0.0440175 
17471 6 18.967 2.40892 17.4733 -23.2649 -14.7278 -12.1373 
17510 7 19.2091 1.77135 18.1373 3.42818 0.0129009 -4.76645 
17509 7 19.6266 3.08 17.5869 -0.118497 -0.138479 -1.11127 
17463 4 21.2166 0.803669 14.1626 -10.6078 -29.2503 -22.7057 
17508 6 17.8464 4.06248 15.2799 -9.41549 -3.7896 15.9413 
14959 7 21.4063 -0.777289 18.3237 0.788444 4.46193 9.97043 
14960 7 21.2099 0.730247 18.1003 -1.2933 14.3175 10.669 
17391 3 21.5749 -1.51017 15.3951 -23.0985 -38.9929 -39.3129 
17825 9 21.6582 -0.8803 16.0905 -4.56201 -2.74581 -220.625 
17462 3 21.3541 3.16625 15.0994 -17.0952 -24.6011 10.7942 
14918 6 21.6328 -0.0682306 17.681 -0.740645 -0.968016 -2.23545 
17826 9 20.5954 2.93472 15.689 2.58264 -1.24999 -9.19286 
17472 7 18.1515 3.4601 16.0138 2.68823 7.33458 5.49406 
17473 7 16.8645 3.88685 15.2116 10.1414 1.3127 -3.09169 
17827 9 21.2082 5.11471 15.2432 -1.52421 9.63642 -17.7523 
17583 7 17.6202 3.0821 18.5982 11.5936 8.177 6.12088 
17582 7 16.2897 3.70183 19.3348 14.5663 10.2667 1.49203 
17474 7 17.5686 -1.68968 15.5626 6.87596 -3.48523 -4.74492 
15312 7 26.9957 24.2746 16.9903 -2.36961 -8.99081 -10.8571 
15272 9 27.6522 -1.78037 15.8591 -0.710725 2.35452 -127.446 
12752 9 29.9781 4.24928 18.4758 -20.2436 3.32194 -8.83128 
14905 7 22.5415 4.85353 18.9496 -0.485921 -6.39654 -7.77244 
15310 7 26.7794 -0.0273654 16.5896 2.06534 11.9069 15.7535 