ITEM: TIMESTEP
360000
ITEM: NUMBER OF ATOMS
25517
ITEM: BOX BOUNDS pp pp ff
-3.8959205201285124e-01 6.0088135642019459e+01
-1.9452389155355383e+00 5.9115524189537531e+01
-1.2206056431032383e+01 1.1390111600702880e+02
ITEM: ATOMS id type x y z v_stressx v_stressy v_stressz 
25292 7 5.89857 3.03966 7.5916 -2.46976 -8.47644 -6.11093 
25293 7 5.98077 1.53035 7.7064 -1.90276 -5.90272 -1.90063 
25252 6 5.35811 2.25094 7.51796 -6.32384 -3.25689 0.160266 
25287 5 0.61597 0.755495 10.7564 7.73127 -1.67642 5.1688 
25283 5 2.94291 4.2301 9.842 10.7526 6.38522 -12.5481 
25281 4 1.3887 2.44216 9.07367 -13.0168 1.74213 -15.6578 
25280 4 1.07853 5.00258 8.46007 -12.9265 -8.58679 -6.87988 
25277 2 1.45655 3.94107 9.49571 51.9714 35.8101 76.9093 
25215 5 2.99957 0.588718 9.72621 -14.4964 -10.0899 -11.5076 
25209 2 1.59287 0.935181 9.44522 9.25649 -58.3376 70.855 
25188 1 4.8243 2.58953 9.97468 5.25446 1.19895 13.8917 
25214 3 0.796635 0.0137284 8.44439 -1.99265 -4.65313 2.79516 
25282 5 0.520916 4.37471 10.6565 -15.1429 -14.4211 -18.0454 
25458 9 1.40812 -0.435335 7.83607 0.0211365 2.13404 1.7639 
25206 1 4.52732 -1.17961 10.115 34.9929 38.056 21.1624 
22660 5 6.52822 0.875659 10.2203 -1.31839 -5.62125 -14.8394 
22735 5 6.623 4.87348 10.5536 2.4715 -9.16651 -14.3062 
25505 7 1.83983 5.65447 5.50835 -0.0566888 -0.16501 -0.29839 
15171 7 23.2194 28.4703 17.8363 5.14534 -2.01938 -0.144128 
22662 3 7.17647 4.29529 8.22411 -12.2829 -23.3385 -18.9127 
22658 3 7.30314 0.346889 7.89736 -15.0033 -15.1911 -11.334 
22905 9 7.65252 -0.485879 7.46068 0.021569 -0.415505 -4.48548 
22906 9 7.50322 4.57024 7.35908 -2.69188 4.36475 9.82756 
20115 7 11.1372 2.292 6.49758 0.448083 -0.00596953 -1.14333 
22656 2 7.7059 0.365729 9.40584 22.2502 73.9916 59.7191 
20116 7 12.1136 2.88755 7.40659 19.7029 6.74281 2.49957 
20078 6 11.1398 2.86581 7.23657 -15.974 -11.7015 1.79269 
20106 3 13.741 4.72985 7.46261 -15.815 -11.0666 42.8819 
22657 2 7.60419 5.1024 9.41016 54.7713 -15.2927 21.7245 
20036 3 13.619 0.47741 7.57109 -16.7054 -19.608 17.1062 
20107 4 13.6664 2.6833 8.8298 -18.136 -14.3551 -33.2631 
20104 2 13.8784 4.18168 8.97251 31.8293 36.5125 92.4935 
20031 2 13.7132 1.1448 8.96008 63.1755 164.014 14.2629 
20108 5 12.6966 4.70757 9.81807 14.7156 11.884 1.39128 
20112 5 12.4932 0.846951 9.91178 10.9313 -0.327122 5.0793 
22654 1 10.4859 2.78478 9.68506 11.2125 10.383 10.6812 
22661 5 9.03983 1.11007 9.56315 -7.47048 -6.45961 -15.7721 
22663 5 9.10858 4.7108 9.73761 4.45756 -12.9052 -15.0722 
22563 1 10.886 -1.13469 10.1589 -0.577557 -0.554919 -16.2786 
22659 4 7.7627 -1.12896 9.68153 -9.5656 -34.8867 -34.3587 
22629 6 11.3751 -1.065 7.76545 -16.8241 4.97759 2.54606 
22669 7 11.9249 -0.207968 7.44815 1.3237 5.22959 -1.29453 
20352 9 13.8605 1.22514 6.87465 0.743684 12.5475 14.6147 
20189 7 14.2777 3.18994 6.51456 0.290543 13.5307 8.286 
20353 9 14.543 5.23857 7.22704 7.75728 13.2101 16.6789 
20148 6 14.5671 2.45013 5.87332 0.144399 0.0569753 0.0987537 
22740 7 11.2703 5.5881 6.8279 3.28872 1.48677 -1.16572 
22738 7 8.76742 5.41578 5.90114 -0.674553 0.70626 -1.34206 
22701 6 7.85394 5.37142 5.69312 0.440923 -0.33963 7.90198 
22739 7 7.886 4.86164 4.87022 -0.0110277 0.0203353 0.00846 
22670 7 11.9327 -1.89861 7.72342 1.06755 1.68349 -5.25302 
20188 7 15.4435 2.20345 6.22553 0.814083 -0.134343 0.0626299 
20037 5 15.0057 0.565552 9.66218 -1.02146 -6.88373 -13.3972 
20118 7 17.8719 2.63796 7.70159 5.63512 -0.32578 -3.00558 
20117 7 17.6995 1.17882 7.44002 2.9933 2.54446 -4.8224 
17799 9 19.455 -0.241526 7.33338 0.322409 6.56828 17.8359 
20077 6 17.1284 2.01775 7.60787 -23.0729 2.35986 27.51 
17484 3 19.536 4.02271 8.03155 -4.18972 -2.59768 -2.37998 
20109 5 15.1822 4.68195 9.53593 -6.01379 -7.38341 -17.8538 
17480 3 19.3808 0.510653 7.95906 -16.3769 -31.8281 11.37 
17478 2 19.7385 0.13463 9.405 32.3065 35.1078 46.6341 
17479 2 19.7269 4.90401 9.32133 46.7426 113.766 62.2355 
17485 5 21.0972 4.45706 9.83859 5.03257 -15.9561 -16.5834 
17483 5 21.125 0.57616 9.92672 5.20963 -10.121 -13.192 
17482 5 18.7273 0.612358 10.4453 0.824908 -3.91892 -6.08737 
17560 5 18.5746 4.39351 10.2378 -1.04523 1.74538 -11.1255 
20011 1 16.7883 2.43064 10.1919 48.7169 46.1551 19.932 
20028 1 16.5417 -1.33752 10.1131 23.7345 17.2817 10.4062 
17481 4 19.613 -1.37684 9.30614 -12.2981 -19.5965 -37.6715 
17800 9 20.2785 3.41394 7.96437 0.319167 -2.88286 -5.41109 
20002 6 16.2002 -1.21507 7.53432 -10.4589 -7.52225 13.8517 
20044 7 15.5857 -0.449442 7.68688 4.3947 8.56663 -3.05108 
20043 7 16.3516 -1.12082 6.60323 0.282933 0.203271 -0.849715 
17377 6 19.8786 -1.6773 6.3322 0.246175 -0.139772 -0.0102604 
17415 7 20.5742 -1.92657 6.98281 2.88483 2.48778 2.04407 
14864 7 23.6314 3.83266 7.75133 5.59441 -4.66711 -1.38845 
14825 6 23.2988 2.969 7.82153 -9.33473 -3.87893 1.22207 
14863 7 24.1611 2.53617 7.90018 3.87371 -1.294 -0.556908 
17476 1 22.5994 2.5974 10.2549 -65.6952 -41.2461 57.5836 
14928 3 25.5679 4.59148 8.20809 -31.3413 -50.1586 -46.8444 
15246 9 24.7065 0.00657495 8.04332 7.95628 10.7591 19.838 
14856 3 25.5405 0.383335 8.16649 -12.5679 -14.7693 11.0883 
14929 4 25.6618 2.47021 9.27814 -17.8386 -35.274 -34.4729 
14851 2 25.7726 0.935136 9.6021 20.2804 -188.713 76.8651 
14926 2 25.8313 3.99121 9.61155 28.977 145.152 89.8613 
14857 5 27.172 0.513951 10.0212 -9.91271 -12.1641 -20.9077 
14931 5 27.2703 4.30837 10.1061 -28.3818 -11.3333 -17.807 
14832 1 28.9014 2.41808 10.4207 13.9362 12.2919 31.0786 
14930 5 24.8007 4.37565 10.6576 12.3263 -4.28811 -13.1486 
14934 5 24.7275 0.511689 10.6576 4.4886 -4.30143 -0.932738 
17384 1 22.8636 -1.16741 10.5973 -0.443728 4.69613 4.85014 
14848 1 28.7231 -1.43222 10.2624 14.5526 18.6274 -17.6909 
14898 6 29.1786 2.45721 7.88738 -13.7122 -15.329 6.19533 
15247 9 26.3681 4.66526 7.72718 -1.61586 -1.08654 -15.3075 
14826 6 28.1456 -1.3901 7.71182 1.25647 -3.49669 26.8976 
14861 7 27.5228 -0.59177 7.7367 5.00884 5.85999 -2.34121 
14862 7 28.7608 -1.17174 6.9734 0.156035 0.0387377 -0.0663851 
17565 7 23.8543 5.62398 7.62904 12.5212 3.75218 -1.57624 
17491 7 23.3409 -0.830267 7.25909 0.10041 0.0707053 -0.458299 
12347 6 29.4782 5.3719 8.00631 -15.2759 -7.34237 3.86849 
14939 7 29.2544 3.33895 7.63004 0.447622 -0.923062 -1.20827 
17492 7 24.1978 -1.77871 8.08715 8.18648 2.44161 -6.36573 
17450 6 23.2929 -1.42611 8.02021 -21.6173 -6.83817 19.3251 
25291 7 5.22591 6.53661 7.32751 1.19341 1.65673 -3.09489 
25290 7 3.82687 6.55555 6.86919 -0.698887 1.64183 -4.36505 
25253 6 4.33607 6.71227 7.63615 -9.59969 -11.5797 1.72677 
25517 7 1.84279 7.29014 5.50902 -0.0252909 -0.060517 -0.551428 
25313 6 1.21101 6.45671 5.78137 6.01414 -5.03508 30.2584 
25362 7 1.19888 10.608 6.31952 -0.0144806 -0.00264441 -0.0175897 
25275 1 4.36027 6.50413 10.1833 3.82128 12.7092 6.4674 
25278 8 0.639374 6.49188 7.63496 53.1309 31.4827 10.3334 
22958 9 3.89074 10.3239 7.2783 -3.47102 1.51905 0.288392 
22732 3 4.70032 10.3548 7.96195 2.33507 -12.7013 13.504 
25359 5 0.701437 8.49354 11.0939 -9.85426 -10.5533 -16.3508 
25356 5 3.08021 12.146 10.2169 9.86191 0.0726719 -12.7286 
25355 5 0.535314 12.2845 10.6518 -2.32037 -5.10333 -6.98158 
25354 4 1.48185 10.2856 9.54639 -13.5772 13.9038 -26.5079 
25353 3 1.39194 12.6945 8.41831 -15.9829 -9.29578 2.92757 
25351 2 1.63225 11.8296 9.72046 39.1263 48.4803 64.8995 
25286 5 2.93236 8.28049 10.0288 -5.66181 -16.2058 -18.635 
25285 4 0.892127 7.85648 8.74192 -20.8259 -18.7349 -4.88013 
25279 2 1.49492 8.71367 9.83417 16.7826 99.2904 76.0806 
25259 1 4.86194 10.2149 10.3927 8.33433 9.31548 62.036 
25327 6 1.60703 9.7444 6.34125 2.31367 1.26067 -0.909941 
25363 7 1.38635 9.50649 7.2315 0.517746 2.78029 1.63461 
22807 5 6.5607 12.2849 10.8694 -15.567 -14.5004 -17.5146 
22730 5 6.65234 8.34528 10.5398 -4.50599 -14.8409 -13.1351 
22726 8 6.48614 10.4372 7.49213 -1.46857 17.8701 -26.2217 
22761 6 7.05704 10.8316 5.66761 1.75858 2.50238 6.86508 
22733 4 6.9844 11.7221 8.61372 -10.9976 -12.6916 -2.7877 
22728 4 7.23016 9.05362 8.29312 -13.0404 -20.3278 -5.84506 
22953 7 7.91026 10.1976 5.3838 -0.0662113 0.10037 -0.652606 
22965 7 7.33207 11.8331 5.45166 -0.0485071 0.141838 -0.277705 
22741 7 11.5 7.01103 7.05421 2.60643 -0.0243385 -1.55624 
22700 6 10.8104 6.36788 7.23855 -16.1054 -2.19342 18.3745 
22636 1 10.9188 6.69179 9.82281 4.22551 9.19671 11.5658 
22729 4 7.48133 6.61374 9.11192 -11.5302 -8.54617 -27.8063 
22668 7 10.5831 8.59932 7.42923 1.90418 4.36565 -3.22134 
22725 2 7.70374 8.13304 9.39568 28.1842 32.3921 98.9251 
22727 2 7.53968 12.6129 9.75953 17.0922 133.203 79.3347 
22630 6 10.7174 9.56513 7.55044 -8.16559 0.699399 5.4319 
22667 7 11.6785 9.56 7.58776 1.26643 0.742499 -1.35493 
20110 3 13.3722 8.00482 7.87861 -11.0073 -1.13217 -3.33571 
20176 4 13.3404 12.979 8.33811 -6.61936 -6.97392 -4.0035 
20177 4 13.5478 10.5013 8.95979 -6.39334 -0.371313 -16.0177 
20173 2 13.7057 11.9908 9.40771 34.2516 -4.96061 75.0442 
20105 2 13.7244 8.93675 9.12343 -1.56085 6.86937 83.849 
20178 5 12.5598 12.2564 10.4158 -7.8604 -12.3376 -22.0731 
20183 5 12.8988 8.51128 10.3587 -3.72376 -11.1439 -7.43379 
22734 5 8.97942 12.4092 10.1072 -12.4087 -12.5681 -17.2346 
22723 1 10.5486 10.4168 9.97488 -2.97299 4.30944 9.48069 
22731 5 9.11607 8.33188 9.85191 -15.6114 -24.4829 -22.223 
20354 9 13.8366 7.1662 8.02076 -1.1168 -12.3078 -25.6822 
17489 7 15.3685 7.53149 7.27379 -6.20217 -2.26659 -3.8177 
17490 7 16.4114 7.08597 6.51817 -0.225127 0.0338922 -0.313275 
17451 6 15.9423 6.78743 7.29642 -18.7681 -17.2894 17.7805 
17555 4 19.5148 6.40419 9.24816 -10.864 2.32034 -18.8322 
20102 1 16.4765 6.46221 9.86905 10.9569 0.501577 19.334 
20179 5 15.0791 12.3713 9.86379 2.71318 3.77041 -11.253 
20111 5 15.0953 8.51182 9.52882 -26.3139 -13.9436 -14.6662 
17802 9 19.4832 11.878 7.51898 -0.107438 -0.0973295 0.171108 
17554 3 19.6317 8.68088 7.9737 -1.91083 -5.3218 6.09394 
17801 9 19.3812 9.57046 8.10065 0.673668 12.1839 6.45771 
17558 3 19.3121 11.5602 8.35726 -4.28806 -2.15492 -1.09086 
17552 2 19.7279 7.97853 9.40881 25.4658 58.4054 61.171 
17553 2 19.7446 12.5897 9.5152 42.4196 43.725 65.9089 
17559 5 21.2085 12.1329 9.83297 6.7964 -0.573195 -10.6634 
17557 5 21.1128 8.33065 9.93016 0.918851 -11.6135 -15.8077 
17556 5 18.49 8.44005 10.194 12.3834 -3.89505 -7.9065 
17631 5 18.754 12.2185 10.6826 1.54858 -5.62426 0.00518599 
20084 1 16.8199 10.2664 10.3615 -12.5589 -5.68905 -0.389168 
17566 7 22.7737 6.49197 7.09029 0.0945407 0.0176949 0.0508111 
17525 6 23.2369 6.30614 7.97014 -29.9773 -5.93314 17.2019 
15249 9 26.4199 12.3989 7.50271 0.846094 0.692691 0.250756 
14924 1 28.8784 6.30371 10.2599 24.6515 20.2348 0.128792 
17459 1 22.8153 6.36449 10.4136 -83.406 -67.529 33.5395 
17550 1 22.6813 10.1773 10.109 18.8129 17.547 8.14541 
15248 9 25.0074 7.30471 8.25379 6.74195 8.85478 8.65228 
15002 3 25.5553 12.1132 7.86039 -4.86479 -8.88609 8.79036 
14932 3 25.8534 7.69566 8.37038 -4.67572 -4.171 1.43414 
15003 4 25.6929 10.0578 9.40228 -9.23582 -5.80672 -23.2156 
15000 2 25.8234 11.5586 9.33827 30.0595 102.71 73.5919 
14927 2 25.9265 8.52626 9.67582 40.6947 66.3899 71.3363 
15005 5 27.2586 12.0307 9.65026 -1.73391 -12.745 -17.0719 
14933 5 27.3368 8.19806 10.2714 9.57438 -14.036 -16.9417 
15004 5 24.794 12.1885 10.2281 0.952747 3.25844 -12.7881 
14907 1 29.0423 10.186 10.3202 23.6222 18.6789 21.7743 
15008 5 24.7476 8.17989 10.6591 15.4501 -0.523129 -3.0732 
14899 6 29.4402 9.94521 7.67407 -3.23448 0.039134 5.31081 
17637 7 24.0129 13.1402 7.48134 1.6109 0.65138 -0.182373 
25427 5 0.471403 16.2254 10.9577 6.0049 -3.74678 -5.36626 
25424 5 3.05777 19.7432 10.2643 -14.9921 -6.35025 -9.39672 
25423 5 0.62854 19.9386 10.7649 4.08774 -4.20518 -9.68574 
25422 4 1.53223 17.8586 9.5283 -9.5562 7.11638 -14.0835 
25421 3 1.35286 20.1653 8.46116 -3.23618 -2.61593 -0.110447 
25419 2 1.68921 19.4163 9.80763 -41.3392 139.883 63.3983 
25358 5 3.0433 15.9649 10.3935 6.05545 -1.2489 -11.3631 
25352 2 1.62447 16.359 9.9389 56.1989 2.95525 35.8074 
25333 1 4.76049 17.9652 10.8964 -6.76807 13.5653 -52.6104 
25357 3 1.27516 15.4524 8.77037 -12.1816 -17.1354 18.3735 
25460 9 1.6173 15.8283 7.87293 0.103285 0.361842 4.20323 
25349 1 4.58657 14.1062 10.6957 6.15085 16.366 -41.7113 
22803 5 6.49129 16.0975 10.8756 1.2785 -0.680763 -0.834111 
22875 5 6.46084 20.071 11.1158 20.0768 7.93364 11.0453 
25459 9 1.48999 13.6574 8.56205 -1.39437 4.46019 -3.93034 
22801 3 7.03055 16.5942 8.55987 -2.23592 -6.94476 4.12868 
2179 7 -0.387305 20.8468 8.22815 14.3942 2.32611 -6.35803 
17684 3 22.108 28.668 15.6004 -11.1427 -5.92481 -1.41952 
22805 3 7.32975 19.3599 8.91011 -8.54906 -8.71793 25.9932 
22908 9 7.54595 19.9046 8.12021 0.00880877 0.260942 6.54545 
22774 6 7.84223 14.1301 6.46407 2.03112 1.25402 1.85738 
22907 9 7.21638 17.5067 8.66763 -0.082642 20.2705 1.75221 
22800 2 7.69826 20.1918 10.1825 72.0323 58.172 35.8628 
22810 7 9.52718 17.6319 7.67339 -2.04244 0.951967 -1.97782 
22775 6 10.3724 17.5576 8.1234 -18.0715 -9.0602 6.47341 
22811 7 11.0269 17.744 7.42304 6.08683 1.0612 -1.19455 
20249 3 13.6146 20.1923 8.5115 -17.6002 -16.1474 19.4357 
22799 2 7.50164 15.6895 9.76752 1.28312 21.2248 69.7883 
20181 4 13.1648 15.598 8.7498 -9.72738 -32.0847 -11.5991 
20250 4 13.59 17.8559 9.69511 -13.9069 6.64471 -27.2911 
20247 2 13.6446 19.4223 9.89672 2.69311 29.3853 68.2626 
20175 2 13.7411 16.3389 9.95052 45.0257 117.241 86.2748 
20255 5 12.7826 16.0392 11.1348 -2.85647 -11.6027 -16.2624 
20251 5 12.5994 19.887 10.8751 -0.660434 0.120967 10.9539 
22797 1 10.5866 17.8329 10.6706 3.63848 -1.43525 25.8844 
22804 5 8.85928 16.0465 10.2629 -4.33781 -10.9831 -13.5528 
22806 5 9.15709 19.6726 10.6518 26.3235 -12.5247 -11.3897 
20209 6 12.874 15.0323 5.7533 0.47406 -0.361464 1.48512 
20174 8 12.7095 14.4625 7.54514 27.4101 11.0163 -53.9803 
22802 4 7.35344 14.1712 9.46207 -20.8649 9.41381 -28.8114 
22707 1 10.7485 14.2517 10.2767 12.7985 10.6788 7.69311 
20180 3 10.8086 14.0423 7.95232 18.1954 -8.9101 4.9778 
20260 7 13.0324 18.8856 6.99744 0.134976 1.34014 1.28434 
20261 7 12.9162 17.3666 7.33817 -0.520642 10.6516 5.65335 
20401 7 13.4229 15.9899 5.62814 -0.160831 0.310766 -1.27867 
20406 9 10.0189 14.4108 7.4707 -1.26628 2.86968 -2.37186 
20413 7 11.9327 15.1884 5.26927 -0.0684444 -0.0248078 -0.438769 
20222 6 12.7014 18.0477 6.67459 -0.751344 0.702119 -1.01473 
22813 7 7.7456 15.0607 6.62462 -0.0707416 -0.0483579 0.0663781 
22812 7 7.44152 13.8113 7.30537 0.746938 1.45211 6.55089 
17861 7 18.0327 18.1656 5.18632 -0.0414936 -0.0258148 -0.195428 
17849 7 19.1146 19.332 5.5722 -0.052577 0.152177 -0.563448 
17657 6 18.7692 18.3451 5.88217 -4.86794 -2.67092 15.0511 
20252 5 14.9691 19.7344 10.5394 -8.47435 -13.5116 -17.4703 
20182 5 15.2166 16.0409 10.213 -3.99644 -20.6462 -13.7511 
17622 8 18.5634 18.0799 7.75046 32.1869 28.0265 -13.8246 
17854 9 15.9449 18.6012 8.0719 -0.28488 2.0402 -3.19648 
17628 3 16.7563 18.0742 8.25458 4.01434 -10.0354 9.52742 
17624 4 19.3217 16.6826 8.46567 -7.82199 -11.5305 -3.73105 
17629 4 18.9827 19.4332 8.85904 -13.8034 -12.4258 1.39187 
17621 2 19.6951 15.6526 9.54627 46.5414 94.7847 81.2665 
17623 2 19.5501 20.2671 10.0023 54.1406 26.5355 74.675 
17630 5 21.0316 19.7719 10.2793 12.4722 -2.70454 -15.2016 
17627 5 21.1919 15.89 9.96206 1.12325 -17.6241 -16.4326 
20155 1 16.8424 17.9752 10.6946 2.58972 10.7923 -13.0404 
17626 5 18.7672 15.8963 10.7355 -8.6902 -8.63987 -11.6753 
20171 1 16.7158 14.1373 10.3208 4.2928 5.85788 -9.00309 
17625 4 19.606 14.0957 9.12525 -6.08538 7.73283 -11.7194 
17564 7 21.4906 17.2833 7.58657 -0.550876 1.5968 -1.05012 
17703 5 18.6795 20.0258 11.2014 -15.3284 -12.5432 -20.6983 
17709 7 19.905 20.6273 7.34679 2.91799 4.95992 4.39785 
20259 7 15.568 20.8847 8.4035 12.2155 3.56653 -2.22637 
17526 6 22.4132 17.452 7.70597 -7.77181 -6.84432 17.3209 
17563 7 22.8092 16.6576 7.3521 0.274291 0.36077 -1.85424 
17619 1 22.5682 17.9268 10.3236 11.2052 12.3704 -15.2794 
15250 9 25.4259 16.554 7.3496 3.24199 4.19479 70.4525 
15006 3 25.6058 15.7572 7.92658 -17.3243 -12.2489 55.4758 
15072 4 25.3173 20.4252 8.40544 -13.1293 -7.96904 -2.67015 
15073 4 25.9599 17.9542 9.15621 -16.0243 6.18776 -34.9091 
15069 2 25.8295 19.4844 9.52152 47.572 196.557 67.0803 
15075 5 27.2671 19.8707 9.91392 4.97163 -4.29115 -14.4655 
15001 2 25.8934 16.4473 9.39988 32.06 22.4235 33.6328 
15007 5 27.2951 15.9854 9.7832 -0.497395 -10.5546 -15.9636 
14980 1 29.1857 17.8209 10.1444 -13.1612 -20.7383 15.6956 
15074 5 24.8028 19.6389 10.6176 -5.88487 -5.27847 -18.8165 
15079 5 24.8396 16.1163 10.4638 8.46945 -3.58216 0.926931 
12533 7 25.4571 18.3754 7.23091 -0.353086 4.52555 6.22284 
17532 1 22.9834 14.1035 10.1761 9.75762 12.6862 8.59224 
14998 1 28.6373 13.9834 10.0874 20.0065 25.0612 13.4342 
12492 6 25.1645 17.9196 6.43544 -1.27661 -1.72224 -0.955967 
12532 7 24.2391 17.8074 6.45162 -0.0703342 0.0127413 -0.221083 
17636 7 24.2982 14.6547 7.77674 3.16128 -4.70246 -4.50364 
17597 6 27.3956 19.7327 6.47718 -16.3837 -1.11215 0.752039 
17635 7 27.0344 19.9354 7.31032 6.39467 1.23644 -2.24782 
17596 6 23.5563 13.9987 7.66239 -11.4038 -1.57374 4.57796 
14974 6 28.7308 14.0837 7.53935 -5.72947 -11.0339 7.57975 
17634 7 26.9707 18.9124 6.11254 0.288944 0.570485 -0.147966 
15084 7 28.6931 18.2675 6.90767 0.59749 2.77727 -1.50817 
15012 7 28.1952 14.867 7.30744 1.77654 1.81478 -1.75457 
15044 6 29.2899 17.8272 7.55162 -18.4277 -15.4108 14.4045 
15011 7 29.5706 14.1102 6.99075 5.0534 0.889267 -0.264355 
25461 9 1.63963 21.1191 8.56579 -0.414578 9.05993 -6.00336 
25417 1 4.459 21.7465 10.9217 -16.8544 -20.1972 -10.8303 
24923 5 0.754769 27.5218 10.9484 6.08138 1.83295 -1.6536 
25425 3 1.35108 22.98 8.77836 -10.7787 -8.27868 18.7896 
24927 5 0.559259 23.61 11.1153 15.4222 -1.75371 7.78557 
25426 5 3.10363 23.8017 10.4009 3.58263 -9.56661 -8.95583 
25420 2 1.64879 23.9265 10.0018 36.389 98.3313 56.0939 
25401 1 4.97038 25.5329 10.7242 11.8047 5.16787 2.36868 
24924 5 3.18735 27.1766 10.4054 -6.28093 -6.1215 -13.6098 
24922 4 1.38256 25.4386 9.75254 -16.5357 10.3461 -16.3565 
24919 2 1.7823 26.9563 9.95451 1.29598 144.983 58.6503 
24921 3 1.55556 27.7248 8.56562 -3.26598 -0.955904 8.27513 
25462 9 1.60156 23.3783 7.96981 -0.0541308 0.116692 1.81407 
22871 5 6.64021 23.6959 10.9095 4.89223 -4.71853 -4.83306 
25451 9 2.36751 27.8615 8.13061 0.0536738 0.483041 1.55988 
22375 5 6.78156 27.3777 11.2762 2.07445 -3.97276 -4.00553 
20355 9 13.7553 21.1037 8.67011 -2.58564 21.3319 -0.758149 
22873 3 7.36095 26.8242 8.94079 -1.60208 -2.85214 22.7133 
22910 9 7.83453 27.1872 8.16884 0.0145289 0.30216 5.1961 
22881 7 10.5673 22.2037 7.78641 0.176027 0.149788 -0.593408 
22880 7 12.0072 21.7432 8.22322 12.0865 4.44434 -4.4859 
22869 3 7.56442 24.0265 8.5961 -0.856015 -1.30208 0.749383 
22842 6 11.0399 21.8185 8.50693 -11.6741 -8.64093 2.42747 
22909 9 7.42422 24.9915 8.72358 -0.313283 9.48319 -0.679179 
22870 4 7.80675 21.6814 9.76784 -9.97049 12.9148 -14.466 
22781 1 10.8959 21.6885 11.0129 -26.0397 -19.4039 22.8471 
22868 2 7.76545 27.7412 10.1816 38.1671 97.6737 40.3831 
22867 2 7.78902 23.2324 9.92461 54.7251 190.026 72.2517 
22381 7 12.0152 26.341 8.4485 11.0773 9.18756 -1.28767 
20253 3 13.4682 23.4016 8.82795 -29.4747 -27.7565 6.40863 
22380 7 10.8121 26.2531 7.54966 0.0750936 0.106303 0.0955512 
22342 6 11.2091 25.8188 8.3988 -19.4837 -2.73506 29.5803 
20317 3 13.3219 27.8427 9.08682 -10.3071 -13.3523 -9.41068 
20248 2 13.7696 24.0294 10.2263 8.51322 4.69732 108.195 
20318 4 13.624 25.5447 10.0164 -29.2278 -19.0579 -43.7451 
20315 2 13.7788 27.0543 10.3348 51.6559 -14.3735 84.2857 
22865 1 10.6865 25.3992 10.9226 12.2712 11.0447 16.3933 
22872 5 9.17462 23.6871 10.462 5.26639 -15.634 -14.0151 
22874 5 9.24947 27.6706 10.5948 6.66406 -9.75686 -10.2155 
20356 9 12.5954 23.6209 8.49206 10.2944 3.86847 -9.80624 
25431 7 14.1509 26.52 7.83751 1.08082 4.74819 6.69287 
20323 5 12.8525 23.6161 11.429 2.1191 -8.11271 1.26639 
25430 7 14.093 24.9955 7.86813 1.68675 4.72335 10.3794 
25395 6 14.4016 25.7329 7.27378 -0.140285 0.0903778 -0.151062 
20258 7 15.2294 22.3163 8.12146 1.36205 0.127679 -1.36108 
20223 6 16.0015 21.7513 8.2238 -7.33309 -1.23652 8.9375 
20245 1 16.5342 21.695 10.8038 16.4912 20.5517 25.46 
17698 4 19.4354 21.7483 9.56107 -12.1914 -3.75323 -28.4655 
20320 5 15.2214 27.4242 10.856 4.46269 -11.1736 -15.2838 
20254 5 15.1801 23.5949 10.561 -15.9621 -11.6436 -19.8071 
20329 7 17.2434 26.6466 8.28058 4.01179 3.22933 -3.64598 
20328 7 16.0419 25.8023 7.61998 1.70554 -0.0119752 -0.105949 
17803 9 18.6355 24.4714 8.19816 9.1577 9.23369 -0.635103 
20290 6 16.6573 25.8385 8.42977 -27.2897 -4.91879 7.98747 
17697 3 19.4666 23.9299 8.24968 -7.46572 -15.483 7.76119 
17701 3 18.7572 27.5768 9.07536 -11.4164 -29.7323 -3.52044 
17695 2 19.6311 23.298 9.64847 2.15073 5.04824 78.3031 
17696 2 19.6976 27.9701 10.2409 32.8215 100.677 90.1273 
17700 5 20.9899 23.6351 10.1729 -17.3581 -7.51707 -18.8012 
17702 5 21.0953 27.3466 10.1236 7.70659 -13.6272 -20.3345 
17699 5 18.7076 23.7838 10.7613 -3.04867 -4.1185 -2.08649 
20229 1 17.0048 25.6018 10.9426 18.9676 14.872 -3.20323 
17708 7 20.0702 22.1005 7.0657 -0.237581 1.4039 0.836064 
17670 6 20.1319 21.2549 6.64674 -0.746558 0.850465 -1.34897 
17707 7 20.7868 25.2363 7.6314 4.67904 4.92758 -0.0667007 
17706 7 21.1787 26.5559 8.43819 0.134938 6.55304 6.79787 
17671 6 21.5933 25.7538 7.94146 -0.399316 -4.86937 5.36893 
17804 9 18.1596 28.2261 8.79174 4.30773 -0.350135 -3.04591 
15302 9 22.12 22.0167 7.2663 -10.7511 2.2891 -0.604077 
15082 7 28.9341 21.4367 6.98265 -0.11956 1.92182 -3.0191 
15309 7 26.1711 21.1856 5.56242 -0.0515277 0.354121 -0.579831 
15297 7 25.7773 22.9358 5.36905 0.0246362 0.42189 0.0415945 
15076 3 22.8653 21.7306 7.945 5.14141 -10.2784 6.86686 
15105 6 25.4296 21.9972 5.7434 2.51908 2.79312 8.6929 
15067 1 28.5009 21.8246 10.3102 7.71014 14.3535 38.5671 
17603 1 22.8719 21.8054 10.3091 42.2177 31.2102 68.684 
15070 8 24.6898 21.8654 7.53391 8.80129 22.0901 -5.62502 
15157 7 24.761 24.7113 6.5409 0.0942333 1.42538 -2.19307 
17693 1 22.4585 25.6458 10.3024 35.415 47.1107 77.8833 
15118 6 24.3516 25.0692 5.80024 0.216522 -0.0170764 -0.0836426 
15156 7 23.4675 25.4068 6.08223 0.347766 0.0660703 -0.0144456 
12750 9 28.7793 27.0604 8.02173 -18.1396 -1.29265 -3.52211 
15145 3 25.8709 28.1424 8.32624 -25.3661 -10.2076 23.6418 
15077 4 25.2347 23.1977 8.50469 -14.9462 -21.8534 -11.4768 
15146 4 25.5466 25.6818 9.29943 -8.0036 17.7982 -15.6998 
15143 2 25.8227 27.2278 9.63665 34.3773 58.329 42.6108 
15071 2 25.6377 24.1622 9.58877 43.586 137.552 69.7775 
15078 5 27.0823 23.775 9.8664 3.40901 -1.57952 -12.0384 
15148 5 27.2019 27.5255 10.2775 11.4124 -13.3863 -15.7329 
15051 1 28.9278 25.6837 10.4438 0.499526 13.1369 47.7179 
15147 5 24.7278 27.7419 10.5663 3.82999 -1.89639 -8.0171 
12524 3 29.1596 26.0649 8.01414 -11.2682 -1.29576 8.97493 
15045 6 29.2043 21.7754 7.82857 -18.4581 -11.1266 5.29539 
15251 9 25.5134 27.6474 7.63837 -0.0639013 -0.284352 15.5827 
15151 5 24.6677 23.8201 10.7274 -4.94363 -8.21796 -15.9961 
25272 7 0.976767 3.9878 16.0259 1.15332 0.0434248 1.29307 
25198 5 4.5419 2.55475 12.6561 -16.5656 -9.64375 -9.79291 
25195 5 4.3158 -1.09258 12.7632 0.220915 -2.73529 2.38067 
25511 9 -0.0527546 1.21695 16.0933 -20.73 3.6075 -3.1013 
22635 1 6.05896 0.692999 12.8525 -24.4346 -5.69576 -14.6506 
25268 5 2.06322 2.89899 12.9931 -0.437362 -9.87355 -22.5876 
25258 1 0.250924 4.4912 12.7638 8.57059 2.10458 10.9531 
25207 1 0.476342 0.786529 13.0733 15.953 42.359 26.2719 
25191 2 3.47612 3.03985 13.5769 20.9688 131.472 63.3775 
25263 4 3.57926 4.53329 13.9916 -30.6138 11.8839 -33.7481 
25197 4 3.26023 2.0922 14.7531 -8.53582 -22.3225 -1.64623 
25192 4 3.04502 -0.482259 14.848 -10.8145 -11.3975 -8.11206 
25196 3 0.618368 0.816928 15.4279 17.6159 -16.5434 9.8283 
25190 8 2.48444 0.873835 15.8495 -4.86357 30.7378 -1.07475 
25240 6 3.35842 0.39733 17.5243 -5.15925 -3.15203 28.8611 
25519 7 2.91292 -0.305178 18.174 0.92778 2.47239 -7.29477 
25507 7 3.48887 1.25458 18.2169 3.96151 7.6656 -0.338629 
25308 6 0.289711 4.1725 15.3777 -14.1247 -3.48008 12.3145 
25270 6 2.13047 4.58361 18.018 -20.5507 -32.7351 -36.8266 
25310 7 2.0797 5.30223 18.6817 -6.1462 -25.529 -6.40459 
22655 1 6.37544 4.67075 12.8239 -2.00844 7.58315 -6.02527 
25194 5 1.89442 -1.62182 13.1754 -0.459327 -13.1443 -19.3223 
25189 2 3.31878 -1.5892 13.8009 46.7413 -175.193 92.1802 
25309 7 3.04309 4.58842 17.6779 12.2237 -2.19443 0.0351061 
22683 6 6.07104 0.459499 15.3203 -9.78284 -18.0974 -11.2048 
22644 3 6.85162 4.74382 15.0778 28.5608 -13.0366 12.2181 
25472 9 2.06971 3.20173 18.7891 0.786586 6.43338 5.1695 
22651 7 5.19416 0.830232 15.6102 -5.50318 5.06012 -2.76031 
22650 7 6.65037 0.613538 16.1258 0.0732864 2.48899 12.5115 
22759 7 5.33071 4.51279 18.2821 -0.577145 3.30972 1.16467 
22959 9 6.24929 4.95604 15.9728 -1.50432 3.80705 7.52403 
20061 7 7.48617 1.70129 18.5627 2.43894 1.62117 3.02622 
25446 6 -0.254902 19.6189 15.8782 -40.6411 -6.05011 26.0945 
22649 6 4.44208 4.00487 16.6135 -31.311 -7.84627 -36.6029 
22684 7 3.91425 3.3948 16.1486 -0.944673 -3.0278 0.162993 
25236 7 0.64224 0.757669 19.3683 3.19541 8.60545 -4.24985 
22717 6 5.44363 4.83884 19.1855 -12.4947 -12.912 -13.5169 
20023 6 6.97196 1.3143 17.8376 -6.51149 0.621417 -1.72968 
22685 7 4.52287 4.75746 16.0078 -1.2405 2.66221 6.37203 
20062 7 6.51695 0.587222 18.3389 4.52091 8.50286 1.70365 
12390 7 29.4513 8.39642 16.2937 5.05597 2.07315 5.62653 
22760 7 6.34325 5.26619 19.1993 16.6764 3.24224 -1.34692 
22653 7 6.71441 -1.44497 15.7777 6.45701 18.2822 -3.83603 
25201 6 0.0406887 0.0933754 18.996 -11.7692 -6.74356 1.72321 
12322 3 29.6971 4.11091 18.8557 16.0744 -6.23689 14.0358 
15129 4 27.6601 27.3235 14.2238 -25.2149 -61.2552 -28.1652 
20022 6 13.3686 0.915533 17.6259 -8.82637 -21.6129 -24.6171 
20101 7 9.50771 1.31881 15.8912 -3.09079 4.34681 3.93928 
22931 9 10.3014 -0.718504 15.5784 5.57469 -2.34622 11.2851 
22643 5 10.3472 2.57234 12.1955 -3.0663 -4.95892 -8.45834 
20083 1 12.0539 4.57824 12.2941 16.0643 8.36167 23.9757 
22642 5 7.78438 2.32799 12.6693 -1.1887 -7.54591 -18.9443 
22572 5 10.3915 -1.19034 12.4814 -0.914775 -7.35471 -6.51579 
22647 5 8.01803 -1.15376 13.3887 10.8875 -11.7187 -18.6818 
20029 1 12.4935 0.818447 12.5759 -3.22873 2.0777 -6.41098 
20095 5 13.8672 2.81253 13.0198 -11.2146 -10.8899 -13.6443 
22637 2 9.23854 2.21284 13.1776 47.6942 73.1937 68.5309 
22565 2 9.47766 -0.798971 13.6553 41.6299 44.9038 60.2682 
22641 4 9.6135 0.790931 13.697 -27.9416 6.39342 -31.0841 
22640 4 9.10375 3.21619 14.2882 -11.4984 -20.5686 -12.9062 
20060 6 12.2438 0.661437 15.189 -22.2927 -9.78641 -0.933096 
20025 7 11.4653 0.824761 15.6962 -1.44975 1.4763 -2.59254 
22638 8 8.72852 4.51986 15.3939 48.9374 22.3579 14.0501 
20024 7 12.934 0.640204 15.8658 -4.31422 3.90269 -0.802603 
22688 6 9.56585 4.06095 17.0644 -2.05202 1.27412 12.3599 
20130 6 9.57543 0.848156 16.7138 -18.747 -17.4125 -11.2564 
20016 5 13.8732 -1.10957 13.0216 3.08175 -14.9687 -20.0978 
20100 7 8.66713 0.730561 17.0594 14.0469 2.90011 -0.458423 
22967 7 9.47841 4.61455 17.9211 2.45345 0.565832 -5.35714 
22571 3 10.0471 -1.37181 14.9776 -18.8078 -24.6511 -0.177138 
20064 7 13.7969 1.43583 18.3275 0.168861 -0.0531279 10.6376 
20096 6 10.894 0.90511 19.1656 -19.8129 -17.4682 -5.68707 
20135 7 11.6661 1.02019 18.5412 8.68115 2.31168 2.01537 
20134 7 10.1744 0.704678 18.518 -1.76055 2.07411 7.17737 
22955 7 9.57148 3.01767 17.3617 1.61628 18.8346 1.0603 
20063 7 13.341 0.0969389 18.018 -1.20948 -10.8303 -3.13057 
20098 7 11.6754 3.77367 18.5621 1.51854 2.19054 -0.868632 
20379 9 16.4535 1.7729 14.9755 -30.7065 -2.36805 -50.0271 
20051 3 14.338 -1.49878 19.1802 -28.8196 -31.0155 15.4653 
20378 9 15.4007 0.0444891 14.8487 1.61927 61.7491 25.2397 
20012 2 15.2359 -1.61828 13.5115 12.5741 139.259 76.4119 
17469 5 19.9364 -1.30131 13.4326 7.27662 -11.3674 -8.98146 
20017 5 16.2815 -1.21496 12.5395 7.7998 -1.41669 -7.91282 
20020 5 16.2894 2.4578 12.6312 -4.76494 -4.11968 -15.3326 
17477 1 18.4308 4.50707 12.7514 35.9543 30.573 53.0001 
17458 1 18.218 0.637135 12.871 26.8664 19.6926 10.6727 
17464 5 19.9587 2.61017 13.0923 -13.3072 -11.6485 -17.8109 
20014 3 15.3481 -0.927596 14.9324 -13.8718 -6.14156 23.6097 
20013 2 15.2355 2.86552 13.6686 8.08368 -29.2608 54.3612 
20089 4 15.4847 4.41259 13.8828 -11.8453 -12.961 -18.0399 
17460 2 21.2934 2.30374 13.8302 72.2081 218.527 73.8594 
17386 2 21.2555 -0.760946 14.0881 53.7119 32.1624 39.2818 
20019 3 15.5232 1.96827 14.8786 -13.3471 -14.9326 -16.2473 
17466 6 17.931 0.445391 15.4389 -35.1705 -22.7779 14.8134 
17494 7 17.519 -0.413629 15.5766 8.36833 4.8256 -5.85722 
17493 7 18.6169 0.383787 16.093 1.84158 1.35645 -4.72471 
17471 6 17.4695 2.87497 17.1966 -13.7415 4.00793 8.84236 
17510 7 17.2588 2.07725 16.6096 9.72063 18.2369 1.70944 
17509 7 18.1485 2.43492 17.8066 12.5454 4.88363 3.82954 
17463 4 21.2166 0.803669 14.1626 -16.1973 4.47963 -32.7706 
17508 6 18.4797 4.43455 15.2234 -20.9106 -7.97034 -1.71666 
14959 7 20.4673 1.12676 17.8552 -5.35785 5.38039 -2.05771 
14960 7 20.9996 1.25623 16.4403 -6.28218 5.92357 4.8287 
17391 3 21.6924 -1.30551 15.4767 -7.1877 -20.6586 40.2764 
17825 9 21.2138 -0.690984 16.1775 3.32056 16.5526 118.073 
17462 3 21.4219 2.9776 15.1991 -30.3417 -36.628 -10.6406 
14918 6 20.8169 0.666015 17.1645 3.94171 -41.8753 -25.7467 
17826 9 21.1872 3.92975 15.092 0.567037 -36.8221 -41.0713 
17544 6 16.3798 4.71303 19.0354 -18.7267 -8.86784 7.83612 
17582 7 16.4164 4.25463 18.1867 3.26758 3.3411 -1.67284 
17457 7 16.2215 1.06954 18.5895 8.06476 1.12 1.2013 
17503 6 16.5193 0.174073 18.9027 -21.0308 -4.43286 0.161616 
17473 7 19.1937 4.99835 15.5168 2.34397 -1.57415 -7.08213 
17472 7 18.158 3.92593 16.0691 7.06211 7.0968 8.73376 
17456 7 15.7116 -0.326635 18.7262 -1.4278 -8.42279 -3.61392 
17499 3 20.019 2.52136 19.103 -11.2749 -8.70588 16.7293 
17504 3 20.6146 5.47767 19.3799 -12.597 -5.31623 7.4485 
17583 7 15.5788 5.23131 18.9715 6.47238 2.7512 -1.52469 
14905 7 22.0198 3.86056 18.243 -4.64651 3.41148 -5.04769 
25271 7 -0.505279 3.88896 15.831 6.63996 1.44103 -2.08437 