ITEM: TIMESTEP
260000
ITEM: NUMBER OF ATOMS
25517
ITEM: BOX BOUNDS pp pp ff
-3.8959205201285124e-01 6.0088135642019459e+01
-1.9452389155355383e+00 5.9115524189537531e+01
-1.2206056431032383e+01 1.1390111600702880e+02
ITEM: ATOMS id type x y z v_stressx v_stressy v_stressz 
25292 7 5.89857 3.03966 7.5916 -2.3864 -8.48038 -6.13554 
25293 7 5.98077 1.53035 7.7064 -1.84804 -5.8779 -1.87965 
25252 6 5.35811 2.25094 7.51796 -6.40219 -3.25961 0.167864 
25287 5 0.61597 0.755495 10.7564 7.5537 -1.56281 1.60418 
25283 5 2.94291 4.2301 9.842 11.0907 6.67311 -12.9748 
25281 4 1.3887 2.44216 9.07367 -13.7324 1.92867 -17.2853 
25280 4 1.07853 5.00258 8.46007 -12.7047 -8.49188 -6.64299 
25277 2 1.45655 3.94107 9.49571 52.0531 39.6679 80.858 
25215 5 2.99957 0.588718 9.72621 -14.7558 -10.1114 -11.8638 
25209 2 1.59287 0.935181 9.44522 7.21684 -56.1292 74.6694 
25188 1 4.8243 2.58953 9.97468 5.26909 1.53212 14.2046 
25214 3 0.796635 0.0137284 8.44439 -2.41 -4.67399 1.55896 
25282 5 0.520916 4.37471 10.6565 -15.3868 -14.3549 -18.0262 
25458 9 1.40812 -0.435335 7.83607 0.0241478 2.07123 1.69604 
25206 1 4.52732 -1.17961 10.115 34.4157 37.7727 19.9088 
22660 5 6.52822 0.875659 10.2203 -1.25456 -5.81838 -14.6441 
22735 5 6.623 4.87348 10.5536 2.53295 -9.19788 -15.1578 
25505 7 1.83983 5.65447 5.50835 -0.0544224 -0.156448 -0.295494 
15312 7 27.0963 23.7889 16.4571 -1.67215 -1.29171 -7.43726 
22662 3 7.17647 4.29529 8.22411 -12.3663 -23.2609 -18.6144 
22658 3 7.30314 0.346889 7.89736 -15.1404 -15.3244 -11.3524 
22905 9 7.65252 -0.485879 7.46068 0.0267525 -0.413401 -4.48221 
22906 9 7.50322 4.57024 7.35908 -2.67296 4.36141 9.95387 
20115 7 11.1372 2.292 6.49758 0.445439 -0.00491042 -1.1364 
22656 2 7.7059 0.365729 9.40584 22.97 74.8114 60.5214 
20116 7 12.1136 2.88755 7.40659 19.7146 6.73685 2.9769 
20078 6 11.1398 2.86581 7.23657 -15.9812 -11.7568 1.15934 
20106 3 13.741 4.72985 7.46261 -15.8622 -11.0729 41.3393 
22657 2 7.60419 5.1024 9.41016 54.4038 -15.9261 20.9001 
20036 3 13.619 0.47741 7.57109 -16.7543 -19.636 16.5127 
20107 4 13.6664 2.6833 8.8298 -18.0521 -13.8824 -34.0698 
20104 2 13.8784 4.18168 8.97251 31.7546 36.1185 93.5338 
20031 2 13.7132 1.1448 8.96008 63.2603 164.873 16.1811 
20108 5 12.6966 4.70757 9.81807 14.8403 12.0177 2.9696 
20112 5 12.4932 0.846951 9.91178 11.0006 -0.526924 5.93283 
22654 1 10.4859 2.78478 9.68506 11.4544 10.3569 10.1945 
22661 5 9.03983 1.11007 9.56315 -7.6568 -6.66098 -16.0326 
22663 5 9.10858 4.7108 9.73761 4.16994 -12.8292 -14.7288 
22563 1 10.886 -1.13469 10.1589 0.0418423 -0.357748 -8.84665 
22659 4 7.7627 -1.12896 9.68153 -9.61842 -34.6971 -33.8283 
22629 6 11.3751 -1.065 7.76545 -16.8036 5.02331 2.41203 
22669 7 11.9249 -0.207968 7.44815 1.31081 5.21632 -1.26757 
20352 9 13.8605 1.22514 6.87465 0.73722 12.549 14.6754 
20189 7 14.2777 3.18994 6.51456 0.299884 13.5538 8.55791 
20353 9 14.543 5.23857 7.22704 7.75877 13.221 17.0434 
20148 6 14.5671 2.45013 5.87332 0.144007 0.0558327 0.0948255 
22740 7 11.2703 5.5881 6.8279 3.28852 1.48482 -1.08837 
22738 7 8.76742 5.41578 5.90114 -0.688844 0.701879 -1.31283 
22701 6 7.85394 5.37142 5.69312 0.465735 -0.328169 7.83121 
22739 7 7.886 4.86164 4.87022 -0.0110658 0.0203478 0.00839835 
22670 7 11.9327 -1.89861 7.72342 1.06944 1.66667 -5.22393 
20188 7 15.4435 2.20345 6.22553 0.815002 -0.132515 0.0930952 
20037 5 15.0057 0.565552 9.66218 -1.09565 -7.1055 -12.8315 
20118 7 17.8719 2.63796 7.70159 5.68169 -0.312263 -2.89669 
20117 7 17.6995 1.17882 7.44002 3.02942 2.55654 -4.69335 
17799 9 19.455 -0.241526 7.33338 0.327389 6.60703 17.9274 
20077 6 17.1284 2.01775 7.60787 -23.2472 2.29378 26.6096 
17484 3 19.536 4.02271 8.03155 -4.24562 -2.57024 -2.24441 
20109 5 15.1822 4.68195 9.53593 -5.84138 -7.16891 -16.3873 
17480 3 19.3808 0.510653 7.95906 -16.4878 -31.8951 11.3753 
17478 2 19.7385 0.13463 9.405 32.7749 34.6134 47.9441 
17479 2 19.7269 4.90401 9.32133 47.5339 112.896 57.8542 
17485 5 21.0972 4.45706 9.83859 4.96154 -15.9095 -15.8193 
17483 5 21.125 0.57616 9.92672 4.94762 -10.0732 -13.4649 
17482 5 18.7273 0.612358 10.4453 1.02827 -3.76919 -5.94931 
17560 5 18.5746 4.39351 10.2378 -1.10108 1.82275 -10.7697 
20011 1 16.7883 2.43064 10.1919 50.2195 45.9137 41.1501 
20028 1 16.5417 -1.33752 10.1131 23.8056 17.0822 10.1013 
17481 4 19.613 -1.37684 9.30614 -12.3181 -19.4788 -38.1937 
17800 9 20.2785 3.41394 7.96437 0.314922 -2.88327 -5.50183 
20002 6 16.2002 -1.21507 7.53432 -10.4336 -7.53778 13.5316 
20044 7 15.5857 -0.449442 7.68688 4.36723 8.5966 -2.79966 
20043 7 16.3516 -1.12082 6.60323 0.283461 0.200711 -0.84433 
17377 6 19.8786 -1.6773 6.3322 0.24616 -0.13967 -0.0133194 
17415 7 20.5742 -1.92657 6.98281 2.87626 2.49837 2.06806 
14864 7 23.6314 3.83266 7.75133 5.59558 -4.68716 -1.49452 
14825 6 23.2988 2.969 7.82153 -9.30676 -3.8402 1.44588 
14863 7 24.1611 2.53617 7.90018 3.87763 -1.30724 -0.606008 
17476 1 22.5994 2.5974 10.2549 -65.6317 -40.8744 38.2745 
14928 3 25.5679 4.59148 8.20809 -31.3249 -49.9282 -45.9748 
15246 9 24.7065 0.00657495 8.04332 7.99822 10.819 20.0559 
14856 3 25.5405 0.383335 8.16649 -12.5933 -14.8521 10.8364 
14929 4 25.6618 2.47021 9.27814 -17.8198 -35.202 -33.9351 
14851 2 25.7726 0.935136 9.6021 20.0753 -189.014 74.8818 
14926 2 25.8313 3.99121 9.61155 28.6221 146.15 87.4381 
14857 5 27.172 0.513951 10.0212 -9.77228 -12.05 -20.603 
14931 5 27.2703 4.30837 10.1061 -28.1536 -11.5386 -17.4504 
14832 1 28.9014 2.41808 10.4207 13.5182 12.0756 25.5103 
14930 5 24.8007 4.37565 10.6576 12.4721 -4.67692 -12.8749 
14934 5 24.7275 0.511689 10.6576 4.83593 -3.86433 -0.211568 
17384 1 22.8636 -1.16741 10.5973 -0.688136 4.2353 -2.40337 
14848 1 28.7231 -1.43222 10.2624 15.2035 18.8385 2.21113 
14898 6 29.1786 2.45721 7.88738 -13.7886 -15.3826 6.24881 
15247 9 26.3681 4.66526 7.72718 -1.61323 -1.09229 -15.3115 
14826 6 28.1456 -1.3901 7.71182 1.26864 -3.46008 26.7421 
14861 7 27.5228 -0.59177 7.7367 5.01817 5.86833 -2.28135 
14862 7 28.7608 -1.17174 6.9734 0.155178 0.0384855 -0.0624397 
17565 7 23.8543 5.62398 7.62904 12.5187 3.73319 -1.67254 
17491 7 23.3409 -0.830267 7.25909 0.0976273 0.0732045 -0.451191 
12347 6 29.4782 5.3719 8.00631 -15.3947 -7.2761 3.96654 
14939 7 29.2544 3.33895 7.63004 0.454677 -0.9253 -1.21003 
17492 7 24.1978 -1.77871 8.08715 8.23027 2.49729 -6.2589 
17450 6 23.2929 -1.42611 8.02021 -21.6068 -7.05288 19.1143 
25291 7 5.22591 6.53661 7.32751 1.2136 1.67036 -3.09551 
25290 7 3.82687 6.55555 6.86919 -0.672815 1.70097 -4.36117 
25253 6 4.33607 6.71227 7.63615 -9.74978 -11.7219 1.99428 
25517 7 1.84279 7.29014 5.50902 -0.0247999 -0.0503091 -0.551885 
25313 6 1.21101 6.45671 5.78137 6.01044 -5.7672 30.2864 
25362 7 1.19888 10.608 6.31952 -0.0127815 -0.00868511 -0.0108688 
25275 1 4.36027 6.50413 10.1833 4.56034 13.2844 6.56094 
25278 8 0.639374 6.49188 7.63496 52.9555 32.8514 9.90295 
22958 9 3.89074 10.3239 7.2783 -3.44835 1.50671 0.313225 
22732 3 4.70032 10.3548 7.96195 2.23571 -12.7528 13.3334 
25359 5 0.701437 8.49354 11.0939 -9.97143 -10.5135 -16.524 
25356 5 3.08021 12.146 10.2169 9.83048 0.116497 -12.5308 
25355 5 0.535314 12.2845 10.6518 -2.62868 -5.29546 -7.86267 
25354 4 1.48185 10.2856 9.54639 -13.8199 13.9105 -26.1885 
25353 3 1.39194 12.6945 8.41831 -12.0584 -8.1363 3.50147 
25351 2 1.63225 11.8296 9.72046 40.633 47.7232 64.5235 
25286 5 2.93236 8.28049 10.0288 -5.65155 -16.2112 -18.6302 
25285 4 0.892127 7.85648 8.74192 -20.7061 -18.9137 -4.4935 
25279 2 1.49492 8.71367 9.83417 16.7009 99.4896 74.5851 
25259 1 4.86194 10.2149 10.3927 7.84285 9.23695 53.7629 
25327 6 1.60703 9.7444 6.34125 2.29297 1.29996 -0.980109 
25363 7 1.38635 9.50649 7.2315 0.520167 2.82787 1.60062 
22807 5 6.5607 12.2849 10.8694 -15.6946 -14.469 -16.6402 
22730 5 6.65234 8.34528 10.5398 -4.53651 -14.7971 -12.9853 
22726 8 6.48614 10.4372 7.49213 -1.56961 18.0715 -25.8327 
22761 6 7.05704 10.8316 5.66761 1.74795 2.5014 6.82915 
22733 4 6.9844 11.7221 8.61372 -10.9513 -12.7675 -2.67151 
22728 4 7.23016 9.05362 8.29312 -12.8972 -20.3767 -5.87473 
22953 7 7.91026 10.1976 5.3838 -0.0660554 0.100469 -0.652563 
22965 7 7.33207 11.8331 5.45166 -0.0481496 0.141889 -0.276849 
22741 7 11.5 7.01103 7.05421 2.60977 -0.0278257 -1.4945 
22700 6 10.8104 6.36788 7.23855 -16.1638 -2.14966 17.8336 
22636 1 10.9188 6.69179 9.82281 4.64715 9.42123 10.5856 
22729 4 7.48133 6.61374 9.11192 -11.2385 -8.42766 -27.2721 
22668 7 10.5831 8.59932 7.42923 1.91628 4.36618 -3.14312 
22725 2 7.70374 8.13304 9.39568 27.0299 32.0109 97.134 
22727 2 7.53968 12.6129 9.75953 17.6955 133.353 80.3989 
22630 6 10.7174 9.56513 7.55044 -8.20382 0.69669 5.32562 
22667 7 11.6785 9.56 7.58776 1.26888 0.738445 -1.31498 
20110 3 13.3722 8.00482 7.87861 -11.0017 -1.15093 -4.07792 
20176 4 13.3404 12.979 8.33811 -6.62635 -6.98168 -4.18107 
20177 4 13.5478 10.5013 8.95979 -6.28948 -0.463582 -16.7751 
20173 2 13.7057 11.9908 9.40771 34.1139 -3.98404 79.3426 
20105 2 13.7244 8.93675 9.12343 -1.93439 7.72457 86.8333 
20178 5 12.5598 12.2564 10.4158 -7.83209 -12.4896 -22.7989 
20183 5 12.8988 8.51128 10.3587 -3.63893 -11.2549 -7.38046 
22734 5 8.97942 12.4092 10.1072 -12.4597 -12.5052 -17.2514 
22723 1 10.5486 10.4168 9.97488 -2.87675 4.44739 9.93863 
22731 5 9.11607 8.33188 9.85191 -15.7074 -24.3986 -21.9493 
20354 9 13.8366 7.1662 8.02076 -1.08592 -12.2706 -25.1187 
17489 7 15.3685 7.53149 7.27379 -6.20513 -2.26795 -3.71271 
17490 7 16.4114 7.08597 6.51817 -0.225332 0.0339891 -0.309394 
17451 6 15.9423 6.78743 7.29642 -18.773 -17.2661 16.8638 
17555 4 19.5148 6.40419 9.24816 -10.9319 2.59493 -17.9324 
20102 1 16.4765 6.46221 9.86905 11.1807 0.180998 18.0243 
20179 5 15.0791 12.3713 9.86379 2.62973 3.64181 -11.8738 
20111 5 15.0953 8.51182 9.52882 -26.1911 -14.0337 -14.7525 
17802 9 19.4832 11.878 7.51898 -0.107899 -0.0987086 0.166672 
17554 3 19.6317 8.68088 7.9737 -1.90915 -5.37117 6.06225 
17801 9 19.3812 9.57046 8.10065 0.660888 12.229 6.45855 
17558 3 19.3121 11.5602 8.35726 -4.18963 -2.11449 -0.740371 
17552 2 19.7279 7.97853 9.40881 25.3593 58.0869 59.4631 
17553 2 19.7446 12.5897 9.5152 42.9843 43.2444 67.7195 
17559 5 21.2085 12.1329 9.83297 6.82047 -0.555336 -10.7324 
17557 5 21.1128 8.33065 9.93016 0.981058 -11.5466 -15.5849 
17556 5 18.49 8.44005 10.194 12.5749 -3.80059 -6.56259 
17631 5 18.754 12.2185 10.6826 1.67729 -5.77877 -2.90413 
20084 1 16.8199 10.2664 10.3615 -11.421 -4.58621 0.0966514 
17566 7 22.7737 6.49197 7.09029 0.0939902 0.0184063 0.0522262 
17525 6 23.2369 6.30614 7.97014 -29.9226 -5.87963 17.6845 
15249 9 26.4199 12.3989 7.50271 0.842897 0.690343 0.254566 
14924 1 28.8784 6.30371 10.2599 24.7009 20.0994 0.115367 
17459 1 22.8153 6.36449 10.4136 -83.086 -67.9082 36.4278 
17550 1 22.6813 10.1773 10.109 18.9446 17.9008 8.45694 
15248 9 25.0074 7.30471 8.25379 6.71575 8.87144 8.64789 
15002 3 25.5553 12.1132 7.86039 -4.83491 -8.86673 8.86646 
14932 3 25.8534 7.69566 8.37038 -4.664 -4.20722 1.33684 
15003 4 25.6929 10.0578 9.40228 -9.21728 -5.96918 -23.0818 
15000 2 25.8234 11.5586 9.33827 30.2621 103.289 71.7646 
14927 2 25.9265 8.52626 9.67582 40.2981 66.6609 71.5647 
15005 5 27.2586 12.0307 9.65026 -1.73679 -12.8311 -16.531 
14933 5 27.3368 8.19806 10.2714 9.61596 -13.7841 -17.0593 
15004 5 24.794 12.1885 10.2281 1.24601 3.2671 -11.9403 
14907 1 29.0423 10.186 10.3202 23.4334 18.604 22.071 
15008 5 24.7476 8.17989 10.6591 15.3724 -0.183127 -2.96406 
14899 6 29.4402 9.94521 7.67407 -3.24349 0.0376406 5.23412 
17637 7 24.0129 13.1402 7.48134 1.61202 0.650907 -0.17351 
25427 5 0.471403 16.2254 10.9577 6.1155 -3.6411 -4.05269 
25424 5 3.05777 19.7432 10.2643 -15.0652 -6.2005 -9.59959 
25423 5 0.62854 19.9386 10.7649 4.06208 -4.30021 -9.94246 
25422 4 1.53223 17.8586 9.5283 -9.89655 7.03622 -14.2188 
25421 3 1.35286 20.1653 8.46116 -3.25034 -2.57108 -0.135683 
25419 2 1.68921 19.4163 9.80763 -41.3383 139.844 64.6274 
25358 5 3.0433 15.9649 10.3935 5.94167 -1.30479 -10.9334 
25352 2 1.62447 16.359 9.9389 57.5623 3.04103 35.104 
25333 1 4.76049 17.9652 10.8964 -4.61121 12.8187 -2.19192 
25357 3 1.27516 15.4524 8.77037 -12.1978 -17.4321 19.5787 
25460 9 1.6173 15.8283 7.87293 0.096644 0.365909 4.23277 
25349 1 4.58657 14.1062 10.6957 6.7546 16.4365 -17.2683 
22803 5 6.49129 16.0975 10.8756 1.68582 -0.68386 0.56513 
22875 5 6.46084 20.071 11.1158 20.2245 8.29096 14.6136 
25459 9 1.48999 13.6574 8.56205 -1.71913 4.68554 -4.2033 
22801 3 7.03055 16.5942 8.55987 -2.25046 -6.94499 4.07809 
2179 7 -0.387305 20.8468 8.22815 14.4275 2.21472 -6.33092 
15052 2 27.5103 21.1728 13.8035 44.2773 63.4403 69.8742 
22805 3 7.32975 19.3599 8.91011 -8.65755 -8.85336 25.2897 
22908 9 7.54595 19.9046 8.12021 0.0125584 0.263391 6.55711 
22774 6 7.84223 14.1301 6.46407 2.02118 1.27128 1.789 
22907 9 7.21638 17.5067 8.66763 -0.0491391 20.278 1.85544 
22800 2 7.69826 20.1918 10.1825 71.476 58.3552 37.6137 
22810 7 9.52718 17.6319 7.67339 -2.03177 0.95971 -1.98112 
22775 6 10.3724 17.5576 8.1234 -18.1291 -9.16226 6.48195 
22811 7 11.0269 17.744 7.42304 6.07961 1.064 -1.27543 
20249 3 13.6146 20.1923 8.5115 -17.5059 -16.0504 19.8968 
22799 2 7.50164 15.6895 9.76752 1.37939 21.6005 69.1316 
20181 4 13.1648 15.598 8.7498 -9.71818 -32.0234 -11.8528 
20250 4 13.59 17.8559 9.69511 -13.7676 6.60663 -27.2728 
20247 2 13.6446 19.4223 9.89672 3.41767 29.2915 68.74 
20175 2 13.7411 16.3389 9.95052 44.731 116.414 86.8544 
20255 5 12.7826 16.0392 11.1348 -2.78355 -11.4842 -16.2548 
20251 5 12.5994 19.887 10.8751 -0.737767 0.0194861 4.37233 
22797 1 10.5866 17.8329 10.6706 3.83724 -1.28321 19.7048 
22804 5 8.85928 16.0465 10.2629 -4.54519 -11.2525 -14.042 
22806 5 9.15709 19.6726 10.6518 26.3512 -12.4473 -11.596 
20209 6 12.874 15.0323 5.7533 0.472877 -0.371133 1.52269 
20174 8 12.7095 14.4625 7.54514 27.4515 10.9599 -54.0951 
22802 4 7.35344 14.1712 9.46207 -20.9835 9.44135 -28.7281 
22707 1 10.7485 14.2517 10.2767 12.3823 10.54 -3.17199 
20180 3 10.8086 14.0423 7.95232 18.1249 -8.84828 5.03124 
20260 7 13.0324 18.8856 6.99744 0.133111 1.34109 1.25295 
20261 7 12.9162 17.3666 7.33817 -0.529008 10.671 5.51297 
20401 7 13.4229 15.9899 5.62814 -0.160661 0.313435 -1.28227 
20406 9 10.0189 14.4108 7.4707 -1.2395 2.8435 -2.41754 
20413 7 11.9327 15.1884 5.26927 -0.0684226 -0.0245536 -0.439214 
20222 6 12.7014 18.0477 6.67459 -0.748573 0.697892 -0.959349 
22813 7 7.7456 15.0607 6.62462 -0.070385 -0.0495572 0.06939 
22812 7 7.44152 13.8113 7.30537 0.738921 1.42974 6.53489 
17861 7 18.0327 18.1656 5.18632 -0.0415185 -0.0256832 -0.195231 
17849 7 19.1146 19.332 5.5722 -0.0523163 0.152505 -0.563615 
17657 6 18.7692 18.3451 5.88217 -4.87429 -2.68981 15.0463 
20252 5 14.9691 19.7344 10.5394 -8.27665 -13.6907 -17.9854 
20182 5 15.2166 16.0409 10.213 -3.93616 -20.4264 -13.6286 
17622 8 18.5634 18.0799 7.75046 32.4682 27.9689 -13.9225 
17854 9 15.9449 18.6012 8.0719 -0.300675 2.02644 -3.33106 
17628 3 16.7563 18.0742 8.25458 4.03946 -9.99958 9.70275 
17624 4 19.3217 16.6826 8.46567 -7.87244 -11.5225 -3.6743 
17629 4 18.9827 19.4332 8.85904 -13.8415 -12.3989 1.00737 
17621 2 19.6951 15.6526 9.54627 46.4639 94.8886 79.5978 
17623 2 19.5501 20.2671 10.0023 53.8034 26.4554 74.7587 
17630 5 21.0316 19.7719 10.2793 12.4558 -2.64642 -15.0791 
17627 5 21.1919 15.89 9.96206 1.1579 -17.6177 -15.9229 
20155 1 16.8424 17.9752 10.6946 2.55883 10.8953 -15.9194 
17626 5 18.7672 15.8963 10.7355 -8.72771 -8.76989 -11.3808 
20171 1 16.7158 14.1373 10.3208 4.74533 6.0357 -21.6988 
17625 4 19.606 14.0957 9.12525 -6.10133 7.91901 -11.5789 
17564 7 21.4906 17.2833 7.58657 -0.559405 1.57684 -1.13077 
17703 5 18.6795 20.0258 11.2014 -15.2062 -12.5636 -21.3314 
17709 7 19.905 20.6273 7.34679 2.93836 4.96061 4.31631 
20259 7 15.568 20.8847 8.4035 12.1806 3.55112 -2.31237 
17526 6 22.4132 17.452 7.70597 -7.67814 -6.70798 17.8345 
17563 7 22.8092 16.6576 7.3521 0.271709 0.355368 -1.86138 
17619 1 22.5682 17.9268 10.3236 11.5789 13 -17.7334 
15250 9 25.4259 16.554 7.3496 3.23963 4.20491 70.4779 
15006 3 25.6058 15.7572 7.92658 -17.2922 -12.2785 55.5444 
15072 4 25.3173 20.4252 8.40544 -13.0996 -7.96954 -2.63042 
15073 4 25.9599 17.9542 9.15621 -16.061 5.91433 -34.673 
15069 2 25.8295 19.4844 9.52152 48.0108 196.845 67.2742 
15075 5 27.2671 19.8707 9.91392 5.06753 -4.21258 -14.1824 
15001 2 25.8934 16.4473 9.39988 32.1974 21.9687 31.3973 
15007 5 27.2951 15.9854 9.7832 -0.53558 -10.4255 -15.3325 
14980 1 29.1857 17.8209 10.1444 -12.9727 -20.3856 13.8573 
15074 5 24.8028 19.6389 10.6176 -6.27036 -5.40499 -19.3201 
15079 5 24.8396 16.1163 10.4638 8.46576 -3.57912 0.923279 
12533 7 25.4571 18.3754 7.23091 -0.367115 4.48703 6.04777 
17532 1 22.9834 14.1035 10.1761 9.67397 12.2678 8.47359 
14998 1 28.6373 13.9834 10.0874 20.122 25.038 13.0547 
12492 6 25.1645 17.9196 6.43544 -1.27385 -1.71644 -0.973119 
12532 7 24.2391 17.8074 6.45162 -0.0711649 0.0112494 -0.214003 
17636 7 24.2982 14.6547 7.77674 3.17644 -4.68115 -4.48122 
17597 6 27.3956 19.7327 6.47718 -16.4188 -1.12419 0.787423 
17635 7 27.0344 19.9354 7.31032 6.41114 1.25828 -2.2252 
17596 6 23.5563 13.9987 7.66239 -11.4383 -1.60441 4.44215 
14974 6 28.7308 14.0837 7.53935 -5.80706 -10.9895 7.22834 
17634 7 26.9707 18.9124 6.11254 0.289189 0.570217 -0.14645 
15084 7 28.6931 18.2675 6.90767 0.60355 2.77636 -1.47845 
15012 7 28.1952 14.867 7.30744 1.78093 1.80889 -1.72164 
15044 6 29.2899 17.8272 7.55162 -18.5093 -15.3724 14.0594 
15011 7 29.5706 14.1102 6.99075 5.05837 0.882693 -0.251828 
25461 9 1.63963 21.1191 8.56579 -0.413562 9.0221 -5.95591 
25417 1 4.459 21.7465 10.9217 -17.013 -19.3369 -30.2913 
24923 5 0.754769 27.5218 10.9484 5.56321 1.72443 -3.49429 
25425 3 1.35108 22.98 8.77836 -10.7894 -8.44897 17.8326 
24927 5 0.559259 23.61 11.1153 15.588 -1.72049 7.40395 
25426 5 3.10363 23.8017 10.4009 3.75587 -9.32676 -9.47446 
25420 2 1.64879 23.9265 10.0018 36.0641 98.5048 60.7184 
25401 1 4.97038 25.5329 10.7242 10.754 4.96721 -8.65524 
24924 5 3.18735 27.1766 10.4054 -6.20048 -6.23898 -14.3032 
24922 4 1.38256 25.4386 9.75254 -16.5991 10.3081 -17.4742 
24919 2 1.7823 26.9563 9.95451 1.55582 144.816 62.0164 
24921 3 1.55556 27.7248 8.56562 -3.27336 -0.937847 8.34738 
25462 9 1.60156 23.3783 7.96981 -0.0537318 0.118291 1.81554 
22871 5 6.64021 23.6959 10.9095 4.56832 -4.90142 -4.90849 
25451 9 2.36751 27.8615 8.13061 0.0539057 0.481804 1.54784 
22375 5 6.78156 27.3777 11.2762 2.00901 -3.92977 -3.89036 
20355 9 13.7553 21.1037 8.67011 -2.60767 21.3409 -0.819482 
22873 3 7.36095 26.8242 8.94079 -1.91071 -2.96344 22.4047 
22910 9 7.83453 27.1872 8.16884 0.0198653 0.301848 5.19819 
22881 7 10.5673 22.2037 7.78641 0.177795 0.151383 -0.590512 
22880 7 12.0072 21.7432 8.22322 12.0811 4.44901 -4.53357 
22869 3 7.56442 24.0265 8.5961 -0.858193 -1.29294 0.760657 
22842 6 11.0399 21.8185 8.50693 -11.6029 -8.60253 2.30104 
22909 9 7.42422 24.9915 8.72358 -0.28546 9.49708 -0.620219 
22870 4 7.80675 21.6814 9.76784 -10.0059 13.1426 -14.7001 
22781 1 10.8959 21.6885 11.0129 -25.7168 -19.0943 18.2154 
22868 2 7.76545 27.7412 10.1816 38.6846 98.1144 39.7709 
22867 2 7.78902 23.2324 9.92461 54.6973 190.704 73.82 
22381 7 12.0152 26.341 8.4485 11.0734 9.2327 -1.57741 
20253 3 13.4682 23.4016 8.82795 -29.191 -27.7724 7.1352 
22380 7 10.8121 26.2531 7.54966 0.0750884 0.106566 0.0969828 
22342 6 11.2091 25.8188 8.3988 -19.4147 -2.80683 30.1916 
20317 3 13.3219 27.8427 9.08682 -10.2632 -13.1916 -8.06244 
20248 2 13.7696 24.0294 10.2263 9.0207 4.55086 110.923 
20318 4 13.624 25.5447 10.0164 -29.2953 -19.2493 -43.654 
20315 2 13.7788 27.0543 10.3348 51.7996 -14.1489 82.8605 
22865 1 10.6865 25.3992 10.9226 12.4976 11.5267 26.0673 
22872 5 9.17462 23.6871 10.462 5.33765 -15.749 -14.3502 
22874 5 9.24947 27.6706 10.5948 6.55388 -9.74454 -10.2091 
20356 9 12.5954 23.6209 8.49206 10.2695 3.89768 -9.93508 
25431 7 14.1509 26.52 7.83751 1.07367 4.75083 6.68446 
20323 5 12.8525 23.6161 11.429 1.66607 -7.93669 0.443834 
25430 7 14.093 24.9955 7.86813 1.66684 4.77023 10.3567 
25395 6 14.4016 25.7329 7.27378 -0.140227 0.0896751 -0.156947 
20258 7 15.2294 22.3163 8.12146 1.34638 0.137647 -1.40789 
20223 6 16.0015 21.7513 8.2238 -7.3307 -1.26428 8.979 
20245 1 16.5342 21.695 10.8038 16.2078 20.5259 27.7541 
17698 4 19.4354 21.7483 9.56107 -12.2237 -3.93813 -29.1719 
20320 5 15.2214 27.4242 10.856 4.34714 -11.2206 -15.2621 
20254 5 15.1801 23.5949 10.561 -15.8867 -11.5548 -20.5615 
20329 7 17.2434 26.6466 8.28058 4.0306 3.21759 -3.59407 
20328 7 16.0419 25.8023 7.61998 1.71011 -0.0107129 -0.0815385 
17803 9 18.6355 24.4714 8.19816 9.15841 9.21932 -0.59085 
20290 6 16.6573 25.8385 8.42977 -27.3262 -4.83495 7.91669 
17697 3 19.4666 23.9299 8.24968 -7.55376 -15.4942 7.32982 
17701 3 18.7572 27.5768 9.07536 -11.5502 -29.553 -4.00403 
17695 2 19.6311 23.298 9.64847 2.50761 5.54751 80.5134 
17696 2 19.6976 27.9701 10.2409 33.5902 100.31 91.5078 
17700 5 20.9899 23.6351 10.1729 -17.4903 -7.63186 -18.9852 
17702 5 21.0953 27.3466 10.1236 7.78586 -13.4864 -20.7201 
17699 5 18.7076 23.7838 10.7613 -3.20157 -4.25822 -0.78996 
20229 1 17.0048 25.6018 10.9426 18.0777 15.1328 -20.0443 
17708 7 20.0702 22.1005 7.0657 -0.232753 1.40627 0.777732 
17670 6 20.1319 21.2549 6.64674 -0.759201 0.848155 -1.26658 
17707 7 20.7868 25.2363 7.6314 4.68727 4.92048 -0.0725237 
17706 7 21.1787 26.5559 8.43819 0.148928 6.5145 6.8813 
17671 6 21.5933 25.7538 7.94146 -0.442266 -4.80061 5.261 
17804 9 18.1596 28.2261 8.79174 4.33383 -0.369426 -2.95959 
15302 9 22.12 22.0167 7.2663 -10.7563 2.30003 -0.642017 
15082 7 28.9341 21.4367 6.98265 -0.114869 1.92278 -3.02871 
15309 7 26.1711 21.1856 5.56242 -0.0511627 0.354138 -0.579056 
15297 7 25.7773 22.9358 5.36905 0.0249559 0.422121 0.0415884 
15076 3 22.8653 21.7306 7.945 5.1101 -10.4118 6.60023 
15105 6 25.4296 21.9972 5.7434 2.50197 2.78475 8.66635 
15067 1 28.5009 21.8246 10.3102 6.80026 13.5138 36.718 
17603 1 22.8719 21.8054 10.3091 39.9892 29.6221 53.9157 
15070 8 24.6898 21.8654 7.53391 8.70655 22.2787 -5.38456 
15157 7 24.761 24.7113 6.5409 0.115029 1.4514 -2.16202 
17693 1 22.4585 25.6458 10.3024 34.3087 46.2887 70.3924 
15118 6 24.3516 25.0692 5.80024 0.214807 -0.0181892 -0.0841447 
15156 7 23.4675 25.4068 6.08223 0.348949 0.0667603 -0.0135916 
12750 9 28.7793 27.0604 8.02173 -18.1492 -1.28411 -3.52971 
15145 3 25.8709 28.1424 8.32624 -25.2244 -10.2822 24.0629 
15077 4 25.2347 23.1977 8.50469 -14.9054 -21.9145 -12.175 
15146 4 25.5466 25.6818 9.29943 -7.90294 17.7831 -15.8839 
15143 2 25.8227 27.2278 9.63665 34.3014 57.8326 43.2963 
15071 2 25.6377 24.1622 9.58877 42.683 137.476 67.4362 
15078 5 27.0823 23.775 9.8664 3.24334 -1.63298 -11.9288 
15148 5 27.2019 27.5255 10.2775 11.3893 -13.1781 -15.8811 
15051 1 28.9278 25.6837 10.4438 0.461037 13.2637 48.5586 
15147 5 24.7278 27.7419 10.5663 3.65522 -1.9192 -8.36056 
12524 3 29.1596 26.0649 8.01414 -11.2561 -1.31467 9.06869 
15045 6 29.2043 21.7754 7.82857 -18.5595 -11.0946 5.08417 
15251 9 25.5134 27.6474 7.63837 -0.0724996 -0.273639 15.4906 
15151 5 24.6677 23.8201 10.7274 -5.00958 -8.38908 -12.9313 
25272 7 0.496402 4.66837 16.0922 8.29156 -2.44359 8.38867 
25198 5 4.5419 2.55475 12.6561 -16.8946 -10.9003 -12.1672 
25195 5 4.3158 -1.09258 12.7632 -0.343707 -3.54309 2.27987 
25511 9 0.012861 1.85764 15.7415 1.1216 9.20564 -0.957158 
22635 1 6.05896 0.692999 12.8525 -11.6281 0.0322513 -10.2002 
25268 5 2.06322 2.89899 12.9931 -2.55462 -15.7463 -24.0896 
25258 1 0.250924 4.4912 12.7638 13.3231 4.94921 5.43195 
25207 1 0.476342 0.786529 13.0733 11.7491 29.9706 13.9109 
25191 2 3.47612 3.03985 13.5769 24.5713 -27.6956 61.7178 
25263 4 3.57926 4.53329 13.9916 -28.8688 -12.0746 -39.9752 
25197 4 3.26023 2.0922 14.7531 -17.9769 -34.1988 -11.1394 
25192 4 3.04502 -0.482259 14.848 -7.63288 -11.2615 -1.77073 
25196 3 0.638288 1.1247 15.2333 5.90362 -8.6317 3.66094 
25190 8 2.41945 0.910551 15.757 18.9879 21.5749 -1.16548 
25240 6 2.72262 0.916578 17.6631 11.2909 -13.6401 38.2919 
25519 7 3.1682 0.000158267 18.0405 1.94215 -1.97009 -16.1846 
25507 7 3.4039 1.59239 18.1686 13.0657 6.1318 19.077 
22649 6 4.07075 4.04986 16.7121 -48.0117 18.9768 -15.7823 
25308 6 -0.129081 4.62023 15.2794 -32.8163 -2.90461 10.1676 
25270 6 1.55239 4.59813 17.4324 -43.7983 2.6399 -16.641 
25310 7 1.68216 5.30276 18.095 -3.20689 3.37011 3.88056 
22655 1 6.37544 4.67075 12.8239 -22.0372 3.88005 -5.8574 
25194 5 1.89442 -1.62182 13.1754 -0.448615 -15.049 -19.66 
25189 2 3.31878 -1.5892 13.8009 43.8651 47.2291 97.2366 
25309 7 2.4148 4.18866 17.3588 4.69909 -3.60725 -1.08805 
22683 6 5.90873 0.705748 15.3792 -20.6242 -8.38056 -1.37428 
22684 7 4.11271 3.19122 16.1659 6.96902 15.2203 8.39074 
22644 3 6.86785 4.83018 15.2121 2.74478 -11.0114 9.97385 
22759 7 4.6102 4.64926 18.4045 1.22342 -4.23524 12.7302 
22959 9 6.35155 5.40736 15.9381 -28.3512 2.18985 -0.0632241 
22685 7 4.04183 4.72036 15.9822 2.18478 -2.78475 -3.98424 
20062 7 5.83756 1.44156 18.2368 6.90044 11.7412 -2.07474 
20061 7 5.8328 2.91906 18.0964 -0.555867 -7.94414 -0.992418 
22650 7 6.16838 1.09442 16.2336 4.60886 0.509159 2.3425 
20023 6 6.37347 2.21605 17.8685 -22.8676 -25.9249 -15.1056 
25236 7 0.537156 0.944823 18.2534 3.14533 4.2252 -1.06749 
22651 7 6.21044 -0.218945 15.548 4.58605 2.19275 -6.28206 
22717 6 5.27513 4.7975 19.1453 -11.398 -10.3398 9.39586 
22687 7 4.72819 -1.09135 19.1081 23.7087 15.1118 -4.96039 
22648 6 5.3836 -0.288753 19.2282 -22.2019 -17.2639 -7.19111 
25311 7 -0.288159 4.38298 18.315 13.6062 2.56645 3.00167 
20022 6 13.5637 3.12912 17.1936 -15.8487 -4.4707 -21.5704 
20101 7 9.58557 1.23169 15.9746 -0.228183 1.47235 4.9427 
22931 9 9.76819 -0.762725 15.7314 1.81731 12.4744 74.1728 
22643 5 10.3472 2.57234 12.1955 -2.89909 -4.48709 -9.03525 
20083 1 12.0539 4.57824 12.2941 18.8578 10.8623 23.3063 
22642 5 7.78438 2.32799 12.6693 -1.67228 -7.33995 -19.7015 
22572 5 10.3915 -1.19034 12.4814 0.37807 -7.835 -3.37907 
22647 5 8.01803 -1.15376 13.3887 15.0212 -14.7642 -20.7869 
20029 1 12.4935 0.818447 12.5759 1.63588 7.56694 -9.51717 
20095 5 13.8672 2.81253 13.0198 2.06932 -12.261 -13.3349 
22637 2 9.23854 2.21284 13.1776 45.723 151.487 77.7761 
22565 2 9.47766 -0.798971 13.6553 42.0239 42.9652 51.6234 
22641 4 9.6135 0.790931 13.697 -22.3231 23.3359 -30.1602 
22640 4 9.10375 3.21619 14.2882 -8.30281 -20.3597 -14.1139 
20060 6 12.5999 0.768105 15.1776 -21.1284 -5.40918 10.5398 
20025 7 13.3068 0.121956 15.212 2.72706 0.521866 -4.2092 
22638 8 8.70693 4.52059 15.4315 -41.9569 11.1999 -70.414 
20024 7 13.0484 1.51988 15.6023 4.05721 1.2127 -1.94621 
22688 6 9.52912 4.17096 17.1199 3.51575 -19.5003 -2.60855 
20130 6 9.60035 0.656854 16.7318 -3.06956 -6.81987 0.962473 
20016 5 13.8732 -1.10957 13.0216 6.10731 -15.4827 -20.7777 
20100 7 10.4523 0.764951 17.1902 8.87412 1.05343 4.26905 
22967 7 8.89586 4.29772 17.9764 -9.25125 10.1278 -45.3417 
22571 3 9.91028 -1.45366 15.0222 -20.8115 -18.3729 28.7251 
20064 7 14.1314 2.69818 16.5362 0.118847 -1.37679 -2.4515 
20063 7 13.5431 4.04398 16.9875 -0.610214 -3.03188 -1.54491 
22918 9 8.71061 -0.544651 18.6371 2.03312 7.88854 -49.7016 
20096 6 11.902 0.958548 18.7594 -13.5428 -9.24928 1.72208 
20135 7 12.1168 1.58426 18.0335 7.2969 5.57887 -0.729503 
22919 9 7.57867 2.53049 18.8608 10.2601 6.41075 -1.31288 
20366 9 14.3409 2.79566 18.6015 3.4774 1.32011 31.2922 
22955 7 10.3762 4.70016 17.482 -4.74879 3.30831 -9.66259 
20098 7 11.8999 3.88199 18.3539 2.1409 0.227405 -7.96948 
20134 7 12.8269 0.675695 18.9243 3.52563 4.28993 -3.57728 
20051 3 14.5966 -1.38971 19.2091 -19.9513 -36.3562 -15.7423 
20131 6 11.8154 4.52721 19.0432 -26.5935 -17.8235 15.7063 
22608 3 9.03136 -1.22248 19.2627 -13.8836 -14.2321 -5.03473 
22856 3 9.51105 28.6076 15.8997 -14.3917 -19.6769 -13.8327 
17813 9 21.2104 3.20904 18.6857 8.01158 31.8897 -0.95395 
20379 9 16.0891 1.78083 15.3127 21.5664 31.1869 46.0173 
20378 9 15.4007 0.0444891 14.8487 2.13034 63.0641 30.874 
20012 2 15.2359 -1.61828 13.5115 16.2835 115.987 76.7313 
17469 5 19.9364 -1.30131 13.4326 -0.905581 -11.5964 -11.092 
20017 5 16.2815 -1.21496 12.5395 12.9887 -1.38029 -1.0951 
20020 5 16.2894 2.4578 12.6312 1.30683 -4.73206 -2.84395 
17477 1 18.4308 4.50707 12.7514 38.7254 34.711 54.8184 
17458 1 18.218 0.637135 12.871 36.6276 27.1384 13.3157 
17464 5 19.9587 2.61017 13.0923 5.65605 -13.436 -13.2363 
20014 3 15.3481 -0.927596 14.9324 -20.8101 -8.28296 36.0968 
20013 2 15.2355 2.86552 13.6686 19.1758 -8.4382 61.0716 
20089 4 15.4847 4.41259 13.8828 -20.4776 23.5102 -27.3689 
17460 2 21.2934 2.30374 13.8302 54.8028 102.949 97.0463 
17386 2 21.2555 -0.760946 14.0881 51.5167 193.007 37.7933 
20019 3 15.2303 2.10674 14.9984 -34.0395 -12.2277 23.098 
17466 6 17.7172 0.877231 15.4049 -31.6469 6.57753 19.9423 
17494 7 17.7281 0.429629 16.2629 8.47291 -10.5231 0.348321 
17493 7 18.1287 1.81509 15.7332 9.70619 25.3212 1.74533 
17471 6 18.9205 3.06054 16.6723 -30.4781 -25.5256 23.9214 
17510 7 19.7243 3.11034 16.1507 -2.53384 2.55404 -17.4363 
17509 7 19.3138 2.74372 17.5581 14.8811 0.374063 10.0711 
17463 4 21.2166 0.803669 14.1626 -18.2196 18.3303 -32.6539 
17508 6 17.9701 5.28133 15.1356 -15.5918 -13.0987 8.36325 
17473 7 18.1971 4.54295 15.7876 4.60109 16.3331 1.87353 
14959 7 19.9031 -0.63793 18.1114 -0.384126 -4.27348 6.47183 
14960 7 20.3217 0.673462 17.5283 -2.8278 -1.72404 5.7127 
17391 3 21.5296 -1.2578 15.5282 -27.8211 -38.3796 24.6117 
17825 9 20.9028 -0.771353 16.1347 11.15 6.58695 61.1664 
17462 3 21.3197 3.0459 15.221 -24.8201 -31.3813 29.0168 
14918 6 19.8536 -0.0846899 17.2949 -6.67065 -26.7507 -10.9545 
17826 9 21.3697 3.98835 15.078 -2.73761 60.8719 23.6458 
17544 6 17.1093 5.04989 18.2978 -13.6804 -13.2867 3.59236 
17582 7 17.6123 5.26791 17.4999 2.80037 4.93345 -0.53904 
17456 7 15.9526 -0.175392 18.6968 9.49363 -1.45219 -2.12501 
17457 7 16.1248 1.30876 18.6589 0.481678 -11.1993 -7.01516 
17499 3 20.8662 2.25163 18.7281 -16.35 -13.0983 5.55029 
17503 6 16.633 0.511535 18.8584 -33.0683 -17.0253 -1.61645 
17472 7 16.9688 5.24802 14.9475 19.0647 2.13644 -3.52328 
17583 7 16.3026 5.5377 18.0752 3.23308 3.25779 -2.52784 
17474 7 16.9682 -1.5526 15.6279 18.6878 15.3982 -7.76129 