ITEM: TIMESTEP
560000
ITEM: NUMBER OF ATOMS
25517
ITEM: BOX BOUNDS pp pp ff
-3.8959205201285124e-01 6.0088135642019459e+01
-1.9452389155355383e+00 5.9115524189537531e+01
-1.2206056431032383e+01 1.1390111600702880e+02
ITEM: ATOMS id type x y z v_stressx v_stressy v_stressz 
25292 7 5.89857 3.03966 7.5916 -2.48177 -8.4811 -6.05659 
25293 7 5.98077 1.53035 7.7064 -1.90364 -5.90173 -1.83789 
25252 6 5.35811 2.25094 7.51796 -6.32461 -3.24971 0.170593 
25287 5 0.61597 0.755495 10.7564 7.84062 -1.61672 5.3061 
25283 5 2.94291 4.2301 9.842 10.7447 6.40548 -12.8474 
25281 4 1.3887 2.44216 9.07367 -12.713 1.88638 -15.6698 
25280 4 1.07853 5.00258 8.46007 -12.799 -8.60343 -6.70164 
25277 2 1.45655 3.94107 9.49571 51.1116 36.2526 77.8186 
25215 5 2.99957 0.588718 9.72621 -14.5759 -10.0617 -11.6371 
25209 2 1.59287 0.935181 9.44522 8.6215 -58.878 71.365 
25188 1 4.8243 2.58953 9.97468 5.03816 0.771651 14.322 
25214 3 0.796635 0.0137284 8.44439 -1.86241 -4.63544 2.70948 
25282 5 0.520916 4.37471 10.6565 -14.9312 -14.5261 -17.6514 
25458 9 1.40812 -0.435335 7.83607 0.0181663 2.12131 1.7398 
25206 1 4.52732 -1.17961 10.115 34.6799 37.8869 19.8371 
22660 5 6.52822 0.875659 10.2203 -0.827306 -5.93 -16.2151 
22735 5 6.623 4.87348 10.5536 2.29461 -9.13596 -12.7849 
25505 7 1.83983 5.65447 5.50835 -0.0566705 -0.1643 -0.297612 
22662 3 7.17647 4.29529 8.22411 -12.1071 -23.2399 -19.6724 
22658 3 7.30314 0.346889 7.89736 -14.9536 -15.1786 -11.4343 
22905 9 7.65252 -0.485879 7.46068 0.0204433 -0.417766 -4.48613 
22906 9 7.50322 4.57024 7.35908 -2.74116 4.3406 9.84975 
20115 7 11.1372 2.292 6.49758 0.444009 -0.00652272 -1.16608 
22656 2 7.7059 0.365729 9.40584 21.9146 74.6505 63.2388 
20116 7 12.1136 2.88755 7.40659 19.6293 6.72579 2.45574 
20078 6 11.1398 2.86581 7.23657 -15.8738 -11.6944 2.08047 
20106 3 13.741 4.72985 7.46261 -15.6815 -11.0833 42.6503 
22657 2 7.60419 5.1024 9.41016 53.7457 -15.9844 21.2173 
20036 3 13.619 0.47741 7.57109 -16.4502 -19.4935 16.8601 
20107 4 13.6664 2.6833 8.8298 -17.7739 -14.2934 -33.8097 
20104 2 13.8784 4.18168 8.97251 31.3034 36.5341 93.9822 
20031 2 13.7132 1.1448 8.96008 61.6064 163.474 14.1654 
20108 5 12.6966 4.70757 9.81807 14.5229 11.9113 1.20707 
20112 5 12.4932 0.846951 9.91178 10.9403 -0.283301 5.54928 
22654 1 10.4859 2.78478 9.68506 11.4309 10.2376 11.8511 
22661 5 9.03983 1.11007 9.56315 -7.55251 -6.55923 -16.5357 
22663 5 9.10858 4.7108 9.73761 4.42991 -12.7983 -15.5298 
22563 1 10.886 -1.13469 10.1589 -0.169413 -0.483713 -13.8335 
22659 4 7.7627 -1.12896 9.68153 -9.35976 -34.8166 -34.7479 
22629 6 11.3751 -1.065 7.76545 -16.8017 5.08491 2.85062 
22669 7 11.9249 -0.207968 7.44815 1.30288 5.2025 -1.36131 
20352 9 13.8605 1.22514 6.87465 0.711451 12.5302 14.6665 
20189 7 14.2777 3.18994 6.51456 0.279276 13.5142 8.37485 
20353 9 14.543 5.23857 7.22704 7.74159 13.2102 16.7515 
20148 6 14.5671 2.45013 5.87332 0.144262 0.0577672 0.0987949 
22740 7 11.2703 5.5881 6.8279 3.28223 1.48519 -1.15763 
22738 7 8.76742 5.41578 5.90114 -0.680829 0.70077 -1.34869 
22701 6 7.85394 5.37142 5.69312 0.467578 -0.322126 7.9263 
22739 7 7.886 4.86164 4.87022 -0.0110936 0.0203206 0.00827574 
22670 7 11.9327 -1.89861 7.72342 1.06081 1.64357 -5.37781 
20188 7 15.4435 2.20345 6.22553 0.815181 -0.137853 0.0776131 
20037 5 15.0057 0.565552 9.66218 -0.838863 -6.811 -13.1545 
20118 7 17.8719 2.63796 7.70159 5.66978 -0.345974 -2.92678 
20117 7 17.6995 1.17882 7.44002 3.03925 2.53427 -4.67464 
17799 9 19.455 -0.241526 7.33338 0.316605 6.58967 17.9461 
20077 6 17.1284 2.01775 7.60787 -23.3223 2.41383 26.6607 
17484 3 19.536 4.02271 8.03155 -4.2187 -2.56367 -2.37892 
20109 5 15.1822 4.68195 9.53593 -5.82361 -7.47888 -17.8591 
17480 3 19.3808 0.510653 7.95906 -16.5087 -31.9262 10.694 
17478 2 19.7385 0.13463 9.405 33.0697 34.5376 49.1139 
17479 2 19.7269 4.90401 9.32133 46.5573 112.835 61.9881 
17485 5 21.0972 4.45706 9.83859 4.84525 -15.864 -17.0235 
17483 5 21.125 0.57616 9.92672 5.21213 -10.0963 -13.2705 
17482 5 18.7273 0.612358 10.4453 0.716694 -3.7208 -7.68116 
17560 5 18.5746 4.39351 10.2378 -1.22908 1.62608 -12.6437 
20011 1 16.7883 2.43064 10.1919 50.5959 46.0053 49.5284 
20028 1 16.5417 -1.33752 10.1131 23.6757 17.0903 9.56896 
17481 4 19.613 -1.37684 9.30614 -12.3877 -19.5519 -38.0156 
17800 9 20.2785 3.41394 7.96437 0.305219 -2.89648 -5.46625 
20002 6 16.2002 -1.21507 7.53432 -10.4548 -7.52334 13.3676 
20044 7 15.5857 -0.449442 7.68688 4.31668 8.56157 -2.832 
20043 7 16.3516 -1.12082 6.60323 0.282735 0.200655 -0.844906 
17377 6 19.8786 -1.6773 6.3322 0.248371 -0.13899 -0.00872061 
17415 7 20.5742 -1.92657 6.98281 2.84499 2.48051 2.07211 
14864 7 23.6314 3.83266 7.75133 5.60018 -4.69344 -1.42946 
14825 6 23.2988 2.969 7.82153 -9.29486 -3.81739 1.30015 
14863 7 24.1611 2.53617 7.90018 3.88952 -1.32128 -0.557622 
17476 1 22.5994 2.5974 10.2549 -65.7763 -41.1312 47.3525 
14928 3 25.5679 4.59148 8.20809 -31.5144 -50.011 -46.445 
15246 9 24.7065 0.00657495 8.04332 7.96842 10.7516 19.8825 
14856 3 25.5405 0.383335 8.16649 -12.5501 -14.7218 11.0184 
14929 4 25.6618 2.47021 9.27814 -17.9049 -35.0325 -33.801 
14851 2 25.7726 0.935136 9.6021 19.7824 -189.974 74.3254 
14926 2 25.8313 3.99121 9.61155 29.6125 145.487 90.563 
14857 5 27.172 0.513951 10.0212 -9.56752 -11.8849 -20.8491 
14931 5 27.2703 4.30837 10.1061 -28.4446 -11.4217 -18.124 
14832 1 28.9014 2.41808 10.4207 14.6335 12.3076 46.0684 
14930 5 24.8007 4.37565 10.6576 12.539 -4.27509 -12.9326 
14934 5 24.7275 0.511689 10.6576 4.38133 -4.14576 -1.03528 
17384 1 22.8636 -1.16741 10.5973 -0.530853 4.15225 2.78479 
14848 1 28.7231 -1.43222 10.2624 13.9393 18.5443 -26.6483 
14898 6 29.1786 2.45721 7.88738 -13.7063 -15.3642 6.23459 
15247 9 26.3681 4.66526 7.72718 -1.61607 -1.09264 -15.3237 
14826 6 28.1456 -1.3901 7.71182 1.31674 -3.4547 26.6143 
14861 7 27.5228 -0.59177 7.7367 4.99397 5.85032 -2.26249 
14862 7 28.7608 -1.17174 6.9734 0.155318 0.0382563 -0.0630428 
17565 7 23.8543 5.62398 7.62904 12.557 3.74218 -1.55691 
17491 7 23.3409 -0.830267 7.25909 0.0972128 0.0689925 -0.451632 
12347 6 29.4782 5.3719 8.00631 -15.2089 -7.12643 4.214 
14939 7 29.2544 3.33895 7.63004 0.448211 -0.924318 -1.2174 
17492 7 24.1978 -1.77871 8.08715 8.18774 2.4273 -6.33412 
17450 6 23.2929 -1.42611 8.02021 -21.5527 -6.91584 19.1879 
25291 7 5.22591 6.53661 7.32751 1.18597 1.63664 -3.11936 
25290 7 3.82687 6.55555 6.86919 -0.705209 1.64218 -4.39288 
25253 6 4.33607 6.71227 7.63615 -9.59874 -11.5 1.84468 
25517 7 1.84279 7.29014 5.50902 -0.0258061 -0.0595663 -0.552637 
25313 6 1.21101 6.45671 5.78137 6.02924 -5.08514 30.2474 
25362 7 1.19888 10.608 6.31952 -0.0150497 -0.00144482 -0.0269247 
25275 1 4.36027 6.50413 10.1833 2.6083 12.1955 5.19299 
25278 8 0.639374 6.49188 7.63496 53.0883 31.515 10.4906 
22958 9 3.89074 10.3239 7.2783 -3.47774 1.52231 0.231131 
22732 3 4.70032 10.3548 7.96195 2.39591 -12.6845 13.5874 
25359 5 0.701437 8.49354 11.0939 -9.77631 -10.3536 -16.9894 
25356 5 3.08021 12.146 10.2169 9.83922 0.0223525 -13.3725 
25355 5 0.535314 12.2845 10.6518 -2.5596 -5.28145 -7.50982 
25354 4 1.48185 10.2856 9.54639 -13.6087 13.5976 -27.2184 
25353 3 1.39194 12.6945 8.41831 -16.1386 -9.3164 3.09176 
25351 2 1.63225 11.8296 9.72046 39.4393 48.8048 68.1466 
25286 5 2.93236 8.28049 10.0288 -5.5945 -15.9832 -19.1146 
25285 4 0.892127 7.85648 8.74192 -20.5903 -18.4032 -4.44443 
25279 2 1.49492 8.71367 9.83417 15.651 97.7576 77.1476 
25259 1 4.86194 10.2149 10.3927 8.28015 9.30226 62.1003 
25327 6 1.60703 9.7444 6.34125 2.32052 1.25057 -0.762822 
25363 7 1.38635 9.50649 7.2315 0.502442 2.78586 1.43526 
22807 5 6.5607 12.2849 10.8694 -15.5861 -14.4064 -17.7671 
22730 5 6.65234 8.34528 10.5398 -4.70762 -14.7031 -13.5219 
22726 8 6.48614 10.4372 7.49213 -1.55159 17.8817 -26.1984 
22761 6 7.05704 10.8316 5.66761 1.75444 2.50911 6.87449 
22733 4 6.9844 11.7221 8.61372 -10.9204 -12.7053 -2.79086 
22728 4 7.23016 9.05362 8.29312 -12.9526 -20.3019 -5.90191 
22953 7 7.91026 10.1976 5.3838 -0.0662159 0.100018 -0.652763 
22965 7 7.33207 11.8331 5.45166 -0.0481682 0.141663 -0.277837 
22741 7 11.5 7.01103 7.05421 2.60347 -0.0290337 -1.55494 
22700 6 10.8104 6.36788 7.23855 -16.0748 -2.10811 18.4388 
22636 1 10.9188 6.69179 9.82281 3.94088 9.05634 12.0728 
22729 4 7.48133 6.61374 9.11192 -11.3877 -8.63715 -27.9019 
22668 7 10.5831 8.59932 7.42923 1.89138 4.35547 -3.26219 
22725 2 7.70374 8.13304 9.39568 27.4471 31.7734 98.0651 
22727 2 7.53968 12.6129 9.75953 16.359 133.061 81.9585 
22630 6 10.7174 9.56513 7.55044 -8.13784 0.723179 5.51236 
22667 7 11.6785 9.56 7.58776 1.26193 0.73351 -1.37714 
20110 3 13.3722 8.00482 7.87861 -10.9872 -1.15277 -3.36875 
20176 4 13.3404 12.979 8.33811 -6.55864 -6.93992 -3.96208 
20177 4 13.5478 10.5013 8.95979 -6.36341 -0.305539 -15.9944 
20173 2 13.7057 11.9908 9.40771 33.9622 -5.36165 75.3171 
20105 2 13.7244 8.93675 9.12343 -1.50503 6.51649 84.5854 
20178 5 12.5598 12.2564 10.4158 -7.97402 -12.5287 -22.5579 
20183 5 12.8988 8.51128 10.3587 -3.939 -10.8897 -7.38037 
22734 5 8.97942 12.4092 10.1072 -12.301 -12.4971 -17.6776 
22723 1 10.5486 10.4168 9.97488 -3.12053 4.1885 9.71209 
22731 5 9.11607 8.33188 9.85191 -15.5426 -24.3813 -22.2994 
20354 9 13.8366 7.1662 8.02076 -1.11774 -12.3149 -25.6482 
17489 7 15.3685 7.53149 7.27379 -6.19936 -2.27573 -3.80771 
17490 7 16.4114 7.08597 6.51817 -0.224832 0.0333657 -0.311455 
17451 6 15.9423 6.78743 7.29642 -18.77 -17.1809 17.6421 
17555 4 19.5148 6.40419 9.24816 -10.8492 2.35747 -18.8809 
20102 1 16.4765 6.46221 9.86905 10.6724 0.326791 18.6282 
20179 5 15.0791 12.3713 9.86379 2.73523 3.78508 -11.5086 
20111 5 15.0953 8.51182 9.52882 -26.3136 -13.846 -14.8278 
17802 9 19.4832 11.878 7.51898 -0.109179 -0.0972235 0.173759 
17554 3 19.6317 8.68088 7.9737 -1.85841 -5.30036 6.21824 
17801 9 19.3812 9.57046 8.10065 0.622331 12.1421 6.31684 
17558 3 19.3121 11.5602 8.35726 -4.14075 -2.08655 -0.651169 
17552 2 19.7279 7.97853 9.40881 25.2877 58.3763 62.0063 
17553 2 19.7446 12.5897 9.5152 42.6425 43.0999 69.1018 
17559 5 21.2085 12.1329 9.83297 6.88148 -0.396566 -10.9162 
17557 5 21.1128 8.33065 9.93016 0.855337 -11.7667 -16.4183 
17556 5 18.49 8.44005 10.194 12.374 -4.17067 -7.62572 
17631 5 18.754 12.2185 10.6826 1.96711 -5.36817 -3.53621 
20084 1 16.8199 10.2664 10.3615 -11.2051 -4.31009 -1.36137 
17566 7 22.7737 6.49197 7.09029 0.0948834 0.0178631 0.0512248 
17525 6 23.2369 6.30614 7.97014 -29.9711 -5.9206 17.1528 
15249 9 26.4199 12.3989 7.50271 0.842402 0.689883 0.280723 
14924 1 28.8784 6.30371 10.2599 24.8168 20.1171 10.2462 
17459 1 22.8153 6.36449 10.4136 -83.6566 -67.929 36.9865 
17550 1 22.6813 10.1773 10.109 18.8237 17.6773 9.07468 
15248 9 25.0074 7.30471 8.25379 6.74765 8.86645 8.74865 
15002 3 25.5553 12.1132 7.86039 -4.8664 -8.84344 8.5616 
14932 3 25.8534 7.69566 8.37038 -4.66373 -4.18518 1.34442 
15003 4 25.6929 10.0578 9.40228 -9.30859 -5.92259 -24.0078 
15000 2 25.8234 11.5586 9.33827 29.976 102.68 74.0646 
14927 2 25.9265 8.52626 9.67582 40.964 67.1117 75.7918 
15005 5 27.2586 12.0307 9.65026 -1.61538 -12.5932 -16.8587 
14933 5 27.3368 8.19806 10.2714 9.37209 -14.1035 -17.6129 
15004 5 24.794 12.1885 10.2281 1.07296 3.20249 -12.3701 
14907 1 29.0423 10.186 10.3202 23.2672 18.7345 22.0024 
15008 5 24.7476 8.17989 10.6591 15.4794 -0.493435 -2.88154 
14899 6 29.4402 9.94521 7.67407 -3.23599 0.0310599 5.29251 
17637 7 24.0129 13.1402 7.48134 1.61019 0.64754 -0.179365 
25427 5 0.471403 16.2254 10.9577 6.17842 -3.68775 -6.11643 
25424 5 3.05777 19.7432 10.2643 -15.1066 -6.35464 -9.7615 
25423 5 0.62854 19.9386 10.7649 4.27686 -4.31135 -10.234 
25422 4 1.53223 17.8586 9.5283 -9.81025 7.14607 -14.1289 
25421 3 1.35286 20.1653 8.46116 -3.22371 -2.60056 -0.0947884 
25419 2 1.68921 19.4163 9.80763 -41.3242 139.557 64.5365 
25358 5 3.0433 15.9649 10.3935 6.00241 -1.06917 -11.7171 
25352 2 1.62447 16.359 9.9389 57.4525 1.42722 36.9499 
25333 1 4.76049 17.9652 10.8964 -5.97565 13.6432 -37.83 
25357 3 1.27516 15.4524 8.77037 -12.4499 -16.9161 18.8095 
25460 9 1.6173 15.8283 7.87293 0.108413 0.362215 4.18608 
25349 1 4.58657 14.1062 10.6957 6.27838 16.4548 -30.4244 
22803 5 6.49129 16.0975 10.8756 1.21226 -0.92917 -1.69949 
22875 5 6.46084 20.071 11.1158 20.3137 8.16553 7.36259 
25459 9 1.48999 13.6574 8.56205 -1.38911 4.39453 -4.08164 
22801 3 7.03055 16.5942 8.55987 -2.21966 -6.87502 4.3042 
2179 7 -0.387305 20.8468 8.22815 14.405 2.3104 -6.33418 
22805 3 7.32975 19.3599 8.91011 -8.45705 -8.59092 26.1087 
22908 9 7.54595 19.9046 8.12021 0.00990286 0.259881 6.54799 
22774 6 7.84223 14.1301 6.46407 2.00496 1.28721 1.97 
22907 9 7.21638 17.5067 8.66763 -0.084175 20.2257 1.70087 
22800 2 7.69826 20.1918 10.1825 71.3529 57.9876 38.4376 
22810 7 9.52718 17.6319 7.67339 -2.03294 0.94525 -2.02066 
22775 6 10.3724 17.5576 8.1234 -18.0653 -9.06035 6.69909 
22811 7 11.0269 17.744 7.42304 6.08322 1.04753 -1.2796 
20249 3 13.6146 20.1923 8.5115 -17.4525 -15.9534 19.5514 
22799 2 7.50164 15.6895 9.76752 0.82362 21.3182 71.0892 
20181 4 13.1648 15.598 8.7498 -9.50481 -32.096 -11.7805 
20250 4 13.59 17.8559 9.69511 -13.6137 6.3921 -28.3748 
20247 2 13.6446 19.4223 9.89672 1.66447 29.1477 69.3229 
20175 2 13.7411 16.3389 9.95052 44.3274 116.917 90.7886 
20255 5 12.7826 16.0392 11.1348 -2.85714 -11.4188 -16.9104 
20251 5 12.5994 19.887 10.8751 -0.684215 -0.169526 11.0873 
22797 1 10.5866 17.8329 10.6706 3.76743 -1.46917 17.0322 
22804 5 8.85928 16.0465 10.2629 -4.48223 -11.2341 -14.6219 
22806 5 9.15709 19.6726 10.6518 26.3712 -12.4212 -11.5559 
20209 6 12.874 15.0323 5.7533 0.481403 -0.360622 1.53587 
20174 8 12.7095 14.4625 7.54514 27.276 11.0509 -53.9213 
22802 4 7.35344 14.1712 9.46207 -20.801 9.27079 -29.1765 
22707 1 10.7485 14.2517 10.2767 12.2254 10.4803 -7.57244 
20180 3 10.8086 14.0423 7.95232 18.2148 -8.89025 5.03817 
20260 7 13.0324 18.8856 6.99744 0.131426 1.33095 1.24923 
20261 7 12.9162 17.3666 7.33817 -0.530519 10.6293 5.56199 
20401 7 13.4229 15.9899 5.62814 -0.162235 0.311893 -1.28692 
20406 9 10.0189 14.4108 7.4707 -1.26731 2.85472 -2.45277 
20413 7 11.9327 15.1884 5.26927 -0.0684882 -0.0247659 -0.439415 
20222 6 12.7014 18.0477 6.67459 -0.746059 0.715091 -0.933958 
22813 7 7.7456 15.0607 6.62462 -0.0697773 -0.0498981 0.0604727 
22812 7 7.44152 13.8113 7.30537 0.757476 1.43617 6.4434 
17861 7 18.0327 18.1656 5.18632 -0.0415077 -0.0258951 -0.195363 
17849 7 19.1146 19.332 5.5722 -0.0527305 0.151747 -0.563466 
17657 6 18.7692 18.3451 5.88217 -4.85979 -2.65848 15.0437 
20252 5 14.9691 19.7344 10.5394 -8.46473 -13.6589 -18.2512 
20182 5 15.2166 16.0409 10.213 -4.12552 -20.637 -14.829 
17622 8 18.5634 18.0799 7.75046 32.4266 27.8269 -14.1725 
17854 9 15.9449 18.6012 8.0719 -0.320503 2.01948 -3.36916 
17628 3 16.7563 18.0742 8.25458 4.05335 -9.96782 9.8166 
17624 4 19.3217 16.6826 8.46567 -7.77046 -11.5574 -3.76815 
17629 4 18.9827 19.4332 8.85904 -13.7342 -12.3042 1.78419 
17621 2 19.6951 15.6526 9.54627 45.685 95.4008 82.5064 
17623 2 19.5501 20.2671 10.0023 52.8699 25.3289 74.8839 
17630 5 21.0316 19.7719 10.2793 12.5105 -2.59811 -15.3009 
17627 5 21.1919 15.89 9.96206 1.10367 -17.7495 -16.604 
20155 1 16.8424 17.9752 10.6946 2.66038 10.9292 -15.2682 
17626 5 18.7672 15.8963 10.7355 -8.47408 -8.62483 -12.5686 
20171 1 16.7158 14.1373 10.3208 5.19951 6.51279 -25.9861 
17625 4 19.606 14.0957 9.12525 -5.92358 7.84418 -11.863 
17564 7 21.4906 17.2833 7.58657 -0.600383 1.56581 -1.14075 
17703 5 18.6795 20.0258 11.2014 -15.3044 -12.4591 -21.84 
17709 7 19.905 20.6273 7.34679 2.92279 4.94585 4.43308 
20259 7 15.568 20.8847 8.4035 12.1827 3.48099 -2.43829 
17526 6 22.4132 17.452 7.70597 -7.6027 -6.6721 17.6081 
17563 7 22.8092 16.6576 7.3521 0.257724 0.349946 -1.8495 
17619 1 22.5682 17.9268 10.3236 11.4435 12.6068 -38.5747 
15250 9 25.4259 16.554 7.3496 3.25521 4.17366 70.6065 
15006 3 25.6058 15.7572 7.92658 -17.3491 -12.1979 55.0085 
15072 4 25.3173 20.4252 8.40544 -12.9246 -7.92154 -2.84073 
15073 4 25.9599 17.9542 9.15621 -15.5537 6.14668 -34.8271 
15069 2 25.8295 19.4844 9.52152 46.3286 196.15 66.7902 
15075 5 27.2671 19.8707 9.91392 4.91878 -4.25441 -14.7667 
15001 2 25.8934 16.4473 9.39988 31.043 22.0201 32.1651 
15007 5 27.2951 15.9854 9.7832 -0.519 -10.5153 -15.6197 
14980 1 29.1857 17.8209 10.1444 -12.5727 -20.7294 16.0157 
15074 5 24.8028 19.6389 10.6176 -5.90331 -5.3053 -19.2861 
15079 5 24.8396 16.1163 10.4638 8.74494 -3.55998 0.377314 
12533 7 25.4571 18.3754 7.23091 -0.372092 4.48555 6.25502 
17532 1 22.9834 14.1035 10.1761 10.0945 12.5986 8.63265 
14998 1 28.6373 13.9834 10.0874 19.9136 24.7782 12.0461 
12492 6 25.1645 17.9196 6.43544 -1.26699 -1.71517 -0.95714 
12532 7 24.2391 17.8074 6.45162 -0.0725772 0.0114157 -0.218021 
17636 7 24.2982 14.6547 7.77674 3.17935 -4.71358 -4.42814 
17597 6 27.3956 19.7327 6.47718 -16.3528 -1.06696 0.97291 
17635 7 27.0344 19.9354 7.31032 6.35099 1.22421 -2.34363 
17596 6 23.5563 13.9987 7.66239 -11.414 -1.54996 4.56245 
14974 6 28.7308 14.0837 7.53935 -5.66575 -10.9269 6.94448 
17634 7 26.9707 18.9124 6.11254 0.287963 0.569258 -0.149396 
15084 7 28.6931 18.2675 6.90767 0.592454 2.77186 -1.52513 
15012 7 28.1952 14.867 7.30744 1.76499 1.79796 -1.6933 
15044 6 29.2899 17.8272 7.55162 -18.4869 -15.3241 14.553 
15011 7 29.5706 14.1102 6.99075 5.04277 0.88111 -0.193353 
25461 9 1.63963 21.1191 8.56579 -0.448933 9.04305 -6.02494 
25417 1 4.459 21.7465 10.9217 -16.3892 -19.8989 -7.20311 
24923 5 0.754769 27.5218 10.9484 5.80228 1.59928 -3.02276 
25425 3 1.35108 22.98 8.77836 -10.4666 -8.39014 18.4014 
24927 5 0.559259 23.61 11.1153 15.69 -1.57029 7.9155 
25426 5 3.10363 23.8017 10.4009 3.49772 -9.51257 -9.5271 
25420 2 1.64879 23.9265 10.0018 35.6472 98.2865 59.1339 
25401 1 4.97038 25.5329 10.7242 10.2684 4.78048 -11.6194 
24924 5 3.18735 27.1766 10.4054 -6.18662 -6.0568 -13.7712 
24922 4 1.38256 25.4386 9.75254 -16.5045 10.4107 -16.8722 
24919 2 1.7823 26.9563 9.95451 1.42222 144.287 59.7505 
24921 3 1.55556 27.7248 8.56562 -3.28982 -0.903239 8.39149 
25462 9 1.60156 23.3783 7.96981 -0.0557497 0.117852 1.81209 
22871 5 6.64021 23.6959 10.9095 4.91785 -4.7944 -5.28011 
25451 9 2.36751 27.8615 8.13061 0.0545258 0.480348 1.55293 
22375 5 6.78156 27.3777 11.2762 2.01316 -4.20464 -4.09776 
20355 9 13.7553 21.1037 8.67011 -2.64135 21.2156 -0.904764 
22873 3 7.36095 26.8242 8.94079 -1.71255 -2.80638 22.8188 
22910 9 7.83453 27.1872 8.16884 0.0146521 0.30156 5.19368 
22881 7 10.5673 22.2037 7.78641 0.173863 0.148294 -0.593852 
22880 7 12.0072 21.7432 8.22322 12.0814 4.3925 -4.55066 
22869 3 7.56442 24.0265 8.5961 -0.846076 -1.30855 0.714587 
22842 6 11.0399 21.8185 8.50693 -11.5693 -8.43635 2.78852 
22909 9 7.42422 24.9915 8.72358 -0.311737 9.50269 -0.604219 
22870 4 7.80675 21.6814 9.76784 -9.74081 13.0255 -14.7261 
22781 1 10.8959 21.6885 11.0129 -25.4071 -19.5301 27.7791 
22868 2 7.76545 27.7412 10.1816 38.0885 97.8304 39.2519 
22867 2 7.78902 23.2324 9.92461 53.676 190.487 73.9144 
22381 7 12.0152 26.341 8.4485 11.0579 9.2056 -1.39422 
20253 3 13.4682 23.4016 8.82795 -29.3578 -27.5744 6.75877 
22380 7 10.8121 26.2531 7.54966 0.0740367 0.106445 0.0973161 
22342 6 11.2091 25.8188 8.3988 -19.3224 -2.73876 29.9896 
20317 3 13.3219 27.8427 9.08682 -10.4103 -13.2717 -8.71697 
20248 2 13.7696 24.0294 10.2263 7.41027 4.03617 110.077 
20318 4 13.624 25.5447 10.0164 -29.086 -19.2081 -43.8219 
20315 2 13.7788 27.0543 10.3348 50.9211 -14.0662 82.8058 
22865 1 10.6865 25.3992 10.9226 12.4717 11.1683 15.838 
22872 5 9.17462 23.6871 10.462 5.22551 -15.6928 -14.3448 
22874 5 9.24947 27.6706 10.5948 6.64734 -9.70752 -10.0716 
20356 9 12.5954 23.6209 8.49206 10.2802 3.86291 -9.86854 
25431 7 14.1509 26.52 7.83751 1.0899 4.73903 6.754 
20323 5 12.8525 23.6161 11.429 2.24652 -7.82943 1.56453 
25430 7 14.093 24.9955 7.86813 1.71516 4.73808 10.4574 
25395 6 14.4016 25.7329 7.27378 -0.140439 0.0913095 -0.154713 
20258 7 15.2294 22.3163 8.12146 1.35564 0.103364 -1.41198 
20223 6 16.0015 21.7513 8.2238 -7.30531 -1.15393 9.15765 
20245 1 16.5342 21.695 10.8038 16.798 20.8676 22.5287 
17698 4 19.4354 21.7483 9.56107 -11.9997 -3.85277 -28.0432 
20320 5 15.2214 27.4242 10.856 4.56875 -11.1803 -14.9747 
20254 5 15.1801 23.5949 10.561 -15.7371 -11.4377 -20.0617 
20329 7 17.2434 26.6466 8.28058 3.98879 3.22125 -3.66184 
20328 7 16.0419 25.8023 7.61998 1.70264 -0.0141435 -0.0927766 
17803 9 18.6355 24.4714 8.19816 9.12772 9.2318 -0.656707 
20290 6 16.6573 25.8385 8.42977 -27.1121 -4.90106 8.25564 
17697 3 19.4666 23.9299 8.24968 -7.37508 -15.4673 7.73482 
17701 3 18.7572 27.5768 9.07536 -11.3494 -29.5695 -3.28482 
17695 2 19.6311 23.298 9.64847 1.28553 5.16085 76.4431 
17696 2 19.6976 27.9701 10.2409 32.9499 100.191 91.9103 
17700 5 20.9899 23.6351 10.1729 -17.4527 -7.69278 -19.2359 
17702 5 21.0953 27.3466 10.1236 7.84594 -13.445 -21.0685 
17699 5 18.7076 23.7838 10.7613 -3.38241 -4.24183 0.689628 
20229 1 17.0048 25.6018 10.9426 18.7742 14.7628 -13.9194 
17708 7 20.0702 22.1005 7.0657 -0.241408 1.38936 0.823362 
17670 6 20.1319 21.2549 6.64674 -0.74663 0.869389 -1.33829 
17707 7 20.7868 25.2363 7.6314 4.68044 4.92306 -0.0551795 
17706 7 21.1787 26.5559 8.43819 0.154012 6.52948 6.85387 
17671 6 21.5933 25.7538 7.94146 -0.427905 -4.84264 5.31262 
17804 9 18.1596 28.2261 8.79174 4.30857 -0.367634 -3.0609 
15302 9 22.12 22.0167 7.2663 -10.7584 2.27753 -0.643944 
15082 7 28.9341 21.4367 6.98265 -0.124832 1.91193 -3.09972 
15309 7 26.1711 21.1856 5.56242 -0.0515471 0.353375 -0.580359 
15297 7 25.7773 22.9358 5.36905 0.0247554 0.421718 0.0413729 
15076 3 22.8653 21.7306 7.945 5.14539 -10.2598 6.90626 
15105 6 25.4296 21.9972 5.7434 2.51643 2.81587 8.68109 
15067 1 28.5009 21.8246 10.3102 7.65759 14.1798 21.8443 
17603 1 22.8719 21.8054 10.3091 42.0503 31.453 63.6538 
15070 8 24.6898 21.8654 7.53391 8.54188 21.9578 -6.06637 
15157 7 24.761 24.7113 6.5409 0.0944438 1.4345 -2.1694 
17693 1 22.4585 25.6458 10.3024 35.8098 46.9544 43.479 
15118 6 24.3516 25.0692 5.80024 0.216239 -0.0168664 -0.0827509 
15156 7 23.4675 25.4068 6.08223 0.34782 0.0661016 -0.0140857 
12750 9 28.7793 27.0604 8.02173 -18.1358 -1.29801 -3.46835 
15145 3 25.8709 28.1424 8.32624 -24.8742 -10.0907 24.0249 
15077 4 25.2347 23.1977 8.50469 -14.7949 -21.8553 -11.5378 
15146 4 25.5466 25.6818 9.29943 -7.63724 17.9541 -15.0143 
15143 2 25.8227 27.2278 9.63665 33.2437 57.4489 39.8256 
15071 2 25.6377 24.1622 9.58877 42.2796 137.225 69.4327 
15078 5 27.0823 23.775 9.8664 3.4947 -1.47982 -12.214 
15148 5 27.2019 27.5255 10.2775 11.4747 -13.2616 -15.4595 
15051 1 28.9278 25.6837 10.4438 0.38956 13.2839 40.0086 
15147 5 24.7278 27.7419 10.5663 3.79908 -1.90583 -7.98237 
12524 3 29.1596 26.0649 8.01414 -11.2912 -1.25021 8.92115 
15045 6 29.2043 21.7754 7.82857 -18.5746 -11.0638 5.15992 
15251 9 25.5134 27.6474 7.63837 -0.0851818 -0.290132 15.6087 
15151 5 24.6677 23.8201 10.7274 -4.90421 -8.1645 -16.607 
25272 7 0.693255 4.36669 16.0249 -0.824269 -1.62683 4.31683 
25198 5 4.5419 2.55475 12.6561 -15.7686 -8.02043 -9.22739 
25195 5 4.3158 -1.09258 12.7632 -1.14309 -3.45377 3.24757 
25511 9 -0.0153501 0.693546 16.377 -4.85898 3.96371 2.92675 
22635 1 6.05896 0.692999 12.8525 -19.8949 -2.89322 -12.4642 
25268 5 2.06322 2.89899 12.9931 0.30414 -9.09917 -21.4357 
25258 1 0.250924 4.4912 12.7638 12.7526 8.07426 2.58466 
25207 1 0.476342 0.786529 13.0733 16.3172 43.3149 28.7721 
25191 2 3.47612 3.03985 13.5769 19.9806 21.1253 61.1413 
25263 4 3.57926 4.53329 13.9916 -25.2705 -3.59062 -32.457 
25197 4 3.26023 2.0922 14.7531 -6.93972 -16.9456 -1.51729 
25192 4 3.04502 -0.482259 14.848 -8.74271 -15.6555 -8.28906 
25196 3 0.585966 0.878269 15.4848 22.1492 -14.7638 24.4979 
25190 8 2.46123 0.865783 15.7675 20.0785 20.6691 -5.63864 
25240 6 2.65832 0.416593 17.6774 -7.99044 -22.4074 41.5793 
25519 7 3.28055 -0.431723 17.8402 0.52378 -6.9556 -10.4444 
25507 7 3.18589 1.08522 18.2879 1.08755 -8.75603 -21.2413 
25308 6 0.0370849 4.44141 15.2993 -33.816 -4.29041 7.91812 
25270 6 1.38867 4.46145 18.0788 -61.8626 6.67428 -5.48384 
22655 1 6.37544 4.67075 12.8239 6.7539 18.5566 11.9536 
25194 5 1.89442 -1.62182 13.1754 -0.402862 -12.6016 -19.0247 
25189 2 3.31878 -1.5892 13.8009 46.3638 127.201 94.1937 
25309 7 2.17014 4.3146 17.5248 3.05269 -3.92148 -7.27325 
22683 6 6.62863 0.50116 15.3247 -12.7607 -0.388406 -3.39687 
22644 3 6.97514 4.63488 15.2583 10.8631 -13.8165 30.6741 
22650 7 6.92698 -0.399479 15.5241 2.58671 2.80932 -5.16599 
22959 9 6.33976 4.65914 16.1429 -10.4028 2.19944 5.68962 
22649 6 3.75875 4.50312 16.8567 -18.7409 -8.00147 -55.6277 
22684 7 3.57485 3.70579 16.2984 -1.31947 3.48417 6.91487 
22687 7 6.03339 0.375353 18.6093 7.26715 7.48651 -0.390078 
20062 7 6.33246 2.54097 18.1836 -2.74826 3.37245 0.543334 
25310 7 1.61909 5.12782 18.7509 -1.25078 10.3413 3.00638 
22759 7 5.04828 4.68091 18.3077 4.10054 1.77782 4.37351 
22651 7 6.82512 1.0682 16.1246 1.29506 5.43292 10.3043 
22685 7 3.89566 5.10738 16.195 -3.19706 -15.45 -4.53349 
25472 9 2.37265 2.93851 19.0755 4.22042 8.20609 63.289 
20023 6 6.97918 1.93546 17.8299 3.36439 -4.48962 -3.17268 
25236 7 0.695906 0.278393 18.141 16.9575 2.55117 2.42194 
12440 6 29.6895 16.0169 19.3105 -8.05186 -15.4848 -3.00341 
25201 6 -0.049485 0.176075 18.7993 -11.763 8.32428 32.8335 
25378 6 -0.301359 12.1942 15.7659 -23.5644 -2.81205 3.39162 
20061 7 7.70919 2.10685 18.5154 13.9897 2.76223 26.4938 
20022 6 13.6217 -1.13194 17.1106 -12.405 -16.4812 -16.6731 
20101 7 8.66985 0.627882 17.0094 3.15921 -2.86455 -2.04552 
22931 9 9.62352 -0.818322 15.7447 -2.16631 3.31064 13.6145 
22643 5 10.3472 2.57234 12.1955 -2.86788 -4.09662 -9.01065 
20083 1 12.0539 4.57824 12.2941 24.8999 14.7714 25.2318 
22642 5 7.78438 2.32799 12.6693 -0.216631 -5.54296 -19.8346 
22572 5 10.3915 -1.19034 12.4814 -0.732341 -8.41483 -5.23176 
22647 5 8.01803 -1.15376 13.3887 10.9556 -17.1881 -19.7244 
20029 1 12.4935 0.818447 12.5759 4.31199 12.8344 -7.26162 
20095 5 13.8672 2.81253 13.0198 -7.47824 -10.6042 -11.8737 
22637 2 9.23854 2.21284 13.1776 46.7987 71.4985 72.0774 
22565 2 9.47766 -0.798971 13.6553 32.0718 54.5988 41.2626 
22641 4 9.6135 0.790931 13.697 -26.0065 6.87202 -28.7084 
22640 4 9.10375 3.21619 14.2882 -12.9323 -30.7749 -21.5813 
20060 6 12.2589 0.673457 15.1551 -4.82754 -5.38734 11.8278 
20025 7 11.328 0.231917 15.0547 15.2512 5.20862 -5.10562 
22638 8 8.81854 4.42573 15.4647 -9.47873 6.79221 -50.914 
20024 7 12.594 0.128302 15.9202 2.57943 9.28071 3.5156 
22688 6 9.96126 4.03492 17.0331 4.28353 5.658 15.5884 
20130 6 9.44463 0.0825533 17.1769 -4.87079 -10.4947 -8.7024 
20016 5 13.8732 -1.10957 13.0216 5.7466 -16.0803 -19.4151 
20100 7 9.10466 -0.573098 17.8077 -2.19475 5.02106 22.6172 
22571 3 9.919 -1.39575 15.0172 -22.1164 -28.6743 1.28721 
20135 7 12.4836 -0.0755305 18.5765 -1.44572 2.79094 -2.12204 
22955 7 9.63852 3.14115 17.5614 -0.539516 1.08148 -7.39278 
20064 7 14.3916 -1.23854 16.5291 2.54384 -0.398553 8.67339 
20134 7 11.0402 0.39833 18.4988 8.27752 2.18876 -0.663945 
20379 9 14.6279 2.13873 15.5515 2.29263 3.67164 8.39164 
20096 6 11.8532 0.431598 19.0386 -11.4828 -13.1986 5.69007 
20098 7 11.5393 4.71658 18.5644 0.283049 2.01009 -1.92057 
20063 7 13.9652 -1.29477 17.9837 -0.170942 2.79617 9.16806 
22967 7 9.78251 4.79613 17.8012 -6.00332 1.45218 -26.2145 
17684 3 21.944 28.6262 15.5503 -7.67254 -13.4338 -3.11248 
20099 7 12.9294 5.14937 19.129 11.9484 4.48485 -3.87487 
17474 7 18.2825 -1.54501 15.3954 5.63044 1.09331 -11.4677 
17456 7 16.7654 -0.350116 19.1851 18.5476 1.53327 -1.65953 
20378 9 15.4007 0.0444891 14.8487 2.12974 91.7444 29.3523 
20012 2 15.2359 -1.61828 13.5115 14.4788 20.1757 76.8462 
17469 5 19.9364 -1.30131 13.4326 4.85147 -12.5803 -12.985 
20017 5 16.2815 -1.21496 12.5395 11.3691 -1.61202 0.508734 
20020 5 16.2894 2.4578 12.6312 -4.79521 -5.02737 -8.61923 
17477 1 18.4308 4.50707 12.7514 33.4966 24.9774 62.917 
17458 1 18.218 0.637135 12.871 39.8509 27.3354 15.0695 
17464 5 19.9587 2.61017 13.0923 -1.58247 -13.2239 -13.7169 
20014 3 15.3481 -0.927596 14.9324 -28.4103 -9.13937 33.3254 
20013 2 15.2355 2.86552 13.6686 29.5071 -16.9002 66.0119 
20089 4 15.4847 4.41259 13.8828 -11.1048 5.54733 -18.0237 
17460 2 21.2934 2.30374 13.8302 62.9991 222.721 41.9478 
17386 2 21.2555 -0.760946 14.0881 46.2092 153.104 42.4644 
20019 3 15.3853 1.98727 14.9938 -15.2702 -7.74179 23.9142 
17466 6 17.9521 0.320396 15.557 -25.6748 -23.3997 46.5637 
17494 7 18.1336 0.268704 16.5185 3.10206 0.511119 0.654707 
17493 7 17.0826 0.776714 15.5647 13.6196 8.56332 -5.62545 
17471 6 19.3268 2.71572 17.0628 -15.0971 -27.6448 -14.9472 
17510 7 18.8278 2.03755 16.6647 -0.175104 -2.19333 -2.94469 
17509 7 19.6861 2.34451 17.8373 1.32232 -1.24663 -1.33688 
17463 4 21.2166 0.803669 14.1626 -14.9856 24.2545 -26.814 
17508 6 18.5976 5.06539 15.3913 -12.2564 -5.0217 17.7901 
14959 7 21.2212 -0.793859 18.4781 0.590093 1.30453 9.5707 
14960 7 21.298 0.708617 18.2599 -2.81324 -1.0694 3.3843 
17391 3 21.527 -1.40779 15.4848 -15.1709 -33.5732 16.3737 
17825 9 21.7526 -0.744612 16.1093 3.68206 -6.65025 100.621 
17462 3 21.2798 3.28657 15.0533 -24.8032 -7.00877 17.0728 
14918 6 21.5289 -0.115202 17.8387 -6.97166 -22.1385 -17.4757 
17826 9 20.8276 2.79504 15.8086 6.03466 4.34652 34.4544 
17473 7 18.922 4.41458 15.9977 2.99435 2.79184 -4.82221 
17583 7 18.072 3.65259 18.2109 11.9229 4.37765 8.97767 
17544 6 17.3731 3.96531 18.9367 -11.756 -7.79362 15.6474 
17582 7 16.7426 3.22976 18.8814 4.65608 3.32392 -3.58436 
17827 9 21.0999 5.05734 15.1642 -3.36441 47.5048 23.7917 
17472 7 19.4051 5.60459 15.1738 16.2314 0.791364 -1.67616 
20367 9 15.2043 5.12221 18.9488 5.45182 2.82294 -25.5128 
12352 7 29.4377 7.42762 17.9195 4.18646 -0.257465 2.53022 
25476 9 3.4145 28.5729 16.3592 0.772383 21.596 89.1467 
17503 6 17.3847 0.422439 19.1869 -12.439 -1.51822 23.7695 
17457 7 16.6645 1.10712 19.1564 14.7072 -0.254007 -3.53877 
15310 7 25.7334 -0.25174 16.3305 1.18754 0.879508 -17.0359 
17392 5 22.3788 -1.113 13.0479 14.869 0.267793 10.8545 
14833 2 27.436 -1.7351 13.7653 11.0523 -25.4041 86.1564 
14837 5 26.0685 -1.25524 13.3193 -21.2102 -14.6533 -16.0188 