ITEM: TIMESTEP
460000
ITEM: NUMBER OF ATOMS
25517
ITEM: BOX BOUNDS pp pp ff
-3.8959205201285124e-01 6.0088135642019459e+01
-1.9452389155355383e+00 5.9115524189537531e+01
-1.2206056431032383e+01 1.1390111600702880e+02
ITEM: ATOMS id type x y z v_stressx v_stressy v_stressz 
25292 7 5.89857 3.03966 7.5916 -2.44424 -8.48837 -6.17101 
25293 7 5.98077 1.53035 7.7064 -1.89258 -5.89542 -1.89835 
25252 6 5.35811 2.25094 7.51796 -6.35988 -3.25454 0.193405 
25287 5 0.61597 0.755495 10.7564 7.97289 -1.52867 5.41204 
25283 5 2.94291 4.2301 9.842 10.9953 6.49856 -12.9053 
25281 4 1.3887 2.44216 9.07367 -13.0742 1.92645 -16.4521 
25280 4 1.07853 5.00258 8.46007 -12.6078 -8.4558 -6.50013 
25277 2 1.45655 3.94107 9.49571 50.9502 36.1039 78.3738 
25215 5 2.99957 0.588718 9.72621 -14.6509 -10.0844 -12.2558 
25209 2 1.59287 0.935181 9.44522 7.08942 -57.6112 73.5374 
25188 1 4.8243 2.58953 9.97468 5.4046 1.35914 14.8188 
25214 3 0.796635 0.0137284 8.44439 -2.49486 -5.05434 1.84336 
25282 5 0.520916 4.37471 10.6565 -14.9632 -14.6115 -18.2158 
25458 9 1.40812 -0.435335 7.83607 0.0168594 2.09856 1.73656 
25206 1 4.52732 -1.17961 10.115 35.0932 38.0745 21.3092 
22660 5 6.52822 0.875659 10.2203 -1.11756 -5.76371 -16.5513 
22735 5 6.623 4.87348 10.5536 2.35097 -9.15769 -15.78 
25505 7 1.83983 5.65447 5.50835 -0.0549168 -0.160842 -0.295453 
22662 3 7.17647 4.29529 8.22411 -11.9874 -23.1938 -18.3734 
22658 3 7.30314 0.346889 7.89736 -14.884 -15.2446 -11.1807 
22905 9 7.65252 -0.485879 7.46068 0.0185823 -0.415247 -4.50339 
22906 9 7.50322 4.57024 7.35908 -2.75364 4.34965 9.64979 
20115 7 11.1372 2.292 6.49758 0.446812 -0.0051863 -1.15886 
22656 2 7.7059 0.365729 9.40584 21.7558 74.4899 62.4625 
20116 7 12.1136 2.88755 7.40659 19.6697 6.69019 2.51829 
20078 6 11.1398 2.86581 7.23657 -15.9646 -11.6439 1.94158 
20106 3 13.741 4.72985 7.46261 -15.6307 -11.0958 42.4948 
22657 2 7.60419 5.1024 9.41016 53.9991 -15.7404 22.712 
20036 3 13.619 0.47741 7.57109 -16.5504 -19.4709 16.8715 
20107 4 13.6664 2.6833 8.8298 -17.731 -14.1293 -33.8872 
20104 2 13.8784 4.18168 8.97251 30.6737 36.5475 93.7696 
20031 2 13.7132 1.1448 8.96008 61.8105 163.255 14.3604 
20108 5 12.6966 4.70757 9.81807 14.8359 11.9686 1.49803 
20112 5 12.4932 0.846951 9.91178 10.9957 -0.217239 6.76661 
22654 1 10.4859 2.78478 9.68506 11.3015 9.87245 11.2868 
22661 5 9.03983 1.11007 9.56315 -7.4787 -6.51656 -16.1049 
22663 5 9.10858 4.7108 9.73761 4.32366 -12.787 -15.5509 
22563 1 10.886 -1.13469 10.1589 -0.537683 -0.354134 -17.2146 
22659 4 7.7627 -1.12896 9.68153 -9.35782 -35.0539 -35.4265 
22629 6 11.3751 -1.065 7.76545 -16.8032 5.05726 2.83781 
22669 7 11.9249 -0.207968 7.44815 1.30935 5.20181 -1.36949 
20352 9 13.8605 1.22514 6.87465 0.720513 12.5375 14.6602 
20189 7 14.2777 3.18994 6.51456 0.288467 13.5256 8.37655 
20353 9 14.543 5.23857 7.22704 7.72731 13.215 16.7668 
20148 6 14.5671 2.45013 5.87332 0.143817 0.0569401 0.0986687 
22740 7 11.2703 5.5881 6.8279 3.29278 1.48882 -1.19238 
22738 7 8.76742 5.41578 5.90114 -0.682674 0.70749 -1.35699 
22701 6 7.85394 5.37142 5.69312 0.472476 -0.341646 7.88486 
22739 7 7.886 4.86164 4.87022 -0.0111113 0.0203866 0.00880498 
22670 7 11.9327 -1.89861 7.72342 1.06957 1.66594 -5.31187 
20188 7 15.4435 2.20345 6.22553 0.816146 -0.135281 0.0714448 
20037 5 15.0057 0.565552 9.66218 -0.811566 -6.74603 -13.2874 
20118 7 17.8719 2.63796 7.70159 5.67329 -0.34677 -2.90435 
20117 7 17.6995 1.17882 7.44002 3.0321 2.54098 -4.69202 
17799 9 19.455 -0.241526 7.33338 0.333462 6.59329 17.9134 
20077 6 17.1284 2.01775 7.60787 -23.2977 2.42001 26.6225 
17484 3 19.536 4.02271 8.03155 -4.19244 -2.56295 -2.44573 
20109 5 15.1822 4.68195 9.53593 -5.80761 -7.49656 -17.651 
17480 3 19.3808 0.510653 7.95906 -16.5714 -31.9791 10.5933 
17478 2 19.7385 0.13463 9.405 32.6807 34.8821 50.2473 
17479 2 19.7269 4.90401 9.32133 45.9611 113.346 63.5558 
17485 5 21.0972 4.45706 9.83859 4.83375 -15.9877 -17.2019 
17483 5 21.125 0.57616 9.92672 5.06659 -10.1189 -13.93 
17482 5 18.7273 0.612358 10.4453 0.96667 -3.61994 -5.69182 
17560 5 18.5746 4.39351 10.2378 -1.11789 1.46263 -12.2083 
20011 1 16.7883 2.43064 10.1919 50.704 45.738 52.0452 
20028 1 16.5417 -1.33752 10.1131 23.6969 17.1669 10.3223 
17481 4 19.613 -1.37684 9.30614 -12.3879 -19.7777 -38.3038 
17800 9 20.2785 3.41394 7.96437 0.301799 -2.89849 -5.4601 
20002 6 16.2002 -1.21507 7.53432 -10.3961 -7.54162 13.5271 
20044 7 15.5857 -0.449442 7.68688 4.31343 8.56474 -2.88643 
20043 7 16.3516 -1.12082 6.60323 0.282886 0.200788 -0.843515 
17377 6 19.8786 -1.6773 6.3322 0.247109 -0.13879 -0.00739909 
17415 7 20.5742 -1.92657 6.98281 2.86672 2.47452 2.06691 
14864 7 23.6314 3.83266 7.75133 5.58958 -4.69006 -1.49983 
14825 6 23.2988 2.969 7.82153 -9.27015 -3.80565 1.53273 
14863 7 24.1611 2.53617 7.90018 3.87446 -1.32131 -0.623776 
17476 1 22.5994 2.5974 10.2549 -65.2555 -40.6549 49.1153 
14928 3 25.5679 4.59148 8.20809 -31.2361 -49.8972 -46.0562 
15246 9 24.7065 0.00657495 8.04332 7.94439 10.7835 19.9916 
14856 3 25.5405 0.383335 8.16649 -12.5418 -14.798 10.7802 
14929 4 25.6618 2.47021 9.27814 -17.4895 -35.3136 -33.9286 
14851 2 25.7726 0.935136 9.6021 19.1888 -189.81 76.3013 
14926 2 25.8313 3.99121 9.61155 27.8163 145.387 89.5379 
14857 5 27.172 0.513951 10.0212 -9.74786 -11.8326 -21.6213 
14931 5 27.2703 4.30837 10.1061 -28.2807 -11.4586 -18.4417 
14832 1 28.9014 2.41808 10.4207 15.1371 12.392 49.4354 
14930 5 24.8007 4.37565 10.6576 12.4931 -4.35606 -13.9883 
14934 5 24.7275 0.511689 10.6576 4.35225 -3.99752 -1.7838 
17384 1 22.8636 -1.16741 10.5973 -0.985266 4.14304 -3.39196 
14848 1 28.7231 -1.43222 10.2624 13.4157 19.1569 -56.9 
14898 6 29.1786 2.45721 7.88738 -13.7392 -15.384 6.42258 
15247 9 26.3681 4.66526 7.72718 -1.6168 -1.09429 -15.3241 
14826 6 28.1456 -1.3901 7.71182 1.27432 -3.34121 26.7562 
14861 7 27.5228 -0.59177 7.7367 4.99606 5.84607 -2.26636 
14862 7 28.7608 -1.17174 6.9734 0.156074 0.0379552 -0.0671197 
17565 7 23.8543 5.62398 7.62904 12.5425 3.75052 -1.57772 
17491 7 23.3409 -0.830267 7.25909 0.0965016 0.0712071 -0.460458 
12347 6 29.4782 5.3719 8.00631 -15.2823 -7.09786 4.43491 
14939 7 29.2544 3.33895 7.63004 0.449764 -0.9227 -1.24174 
17492 7 24.1978 -1.77871 8.08715 8.1855 2.44078 -6.21805 
17450 6 23.2929 -1.42611 8.02021 -21.5355 -6.98699 18.8821 
25291 7 5.22591 6.53661 7.32751 1.18365 1.6493 -3.23073 
25290 7 3.82687 6.55555 6.86919 -0.680246 1.66276 -4.41398 
25253 6 4.33607 6.71227 7.63615 -9.64722 -11.5716 2.16226 
25517 7 1.84279 7.29014 5.50902 -0.024784 -0.0552147 -0.550964 
25313 6 1.21101 6.45671 5.78137 5.96453 -5.39754 30.1767 
25362 7 1.19888 10.608 6.31952 -0.0135241 -0.00635441 -0.0167571 
25275 1 4.36027 6.50413 10.1833 4.43911 13.1101 9.82869 
25278 8 0.639374 6.49188 7.63496 53.0029 32.2332 9.6894 
22958 9 3.89074 10.3239 7.2783 -3.45927 1.50871 0.278522 
22732 3 4.70032 10.3548 7.96195 2.38164 -12.6456 13.7472 
25359 5 0.701437 8.49354 11.0939 -9.62276 -10.307 -16.5826 
25356 5 3.08021 12.146 10.2169 10.0176 0.0669353 -12.8413 
25355 5 0.535314 12.2845 10.6518 -2.72691 -5.40566 -8.85646 
25354 4 1.48185 10.2856 9.54639 -13.567 13.9222 -26.5685 
25353 3 1.39194 12.6945 8.41831 -12.9442 -8.85983 2.8419 
25351 2 1.63225 11.8296 9.72046 39.2926 47.7661 65.0121 
25286 5 2.93236 8.28049 10.0288 -5.38418 -16.0821 -18.8939 
25285 4 0.892127 7.85648 8.74192 -20.628 -18.7306 -4.42912 
25279 2 1.49492 8.71367 9.83417 15.5451 98.5241 76.541 
25259 1 4.86194 10.2149 10.3927 8.27567 9.28522 57.5763 
25327 6 1.60703 9.7444 6.34125 2.2967 1.27638 -0.901944 
25363 7 1.38635 9.50649 7.2315 0.541093 2.81946 1.55516 
22807 5 6.5607 12.2849 10.8694 -15.7438 -14.3725 -17.7145 
22730 5 6.65234 8.34528 10.5398 -4.72587 -14.7715 -13.7308 
22726 8 6.48614 10.4372 7.49213 -1.66569 17.8995 -26.7908 
22761 6 7.05704 10.8316 5.66761 1.76298 2.49807 6.83674 
22733 4 6.9844 11.7221 8.61372 -10.9829 -12.6394 -2.63677 
22728 4 7.23016 9.05362 8.29312 -12.9032 -20.3163 -5.7157 
22953 7 7.91026 10.1976 5.3838 -0.0663242 0.100466 -0.651668 
22965 7 7.33207 11.8331 5.45166 -0.0484667 0.142055 -0.276877 
22741 7 11.5 7.01103 7.05421 2.61257 -0.0260105 -1.57535 
22700 6 10.8104 6.36788 7.23855 -16.1756 -2.16934 18.6858 
22636 1 10.9188 6.69179 9.82281 4.16546 9.39366 12.5334 
22729 4 7.48133 6.61374 9.11192 -11.1869 -8.60438 -27.6053 
22668 7 10.5831 8.59932 7.42923 1.92589 4.35713 -3.22035 
22725 2 7.70374 8.13304 9.39568 27.1432 32.0189 97.5253 
22727 2 7.53968 12.6129 9.75953 16.9212 132.562 80.2271 
22630 6 10.7174 9.56513 7.55044 -8.22999 0.715096 5.36146 
22667 7 11.6785 9.56 7.58776 1.27702 0.733884 -1.34568 
20110 3 13.3722 8.00482 7.87861 -10.9343 -1.13899 -3.66934 
20176 4 13.3404 12.979 8.33811 -6.60916 -6.95652 -4.00335 
20177 4 13.5478 10.5013 8.95979 -6.33927 -0.311339 -16.1235 
20173 2 13.7057 11.9908 9.40771 34.2945 -4.5789 76.8426 
20105 2 13.7244 8.93675 9.12343 -2.10302 6.40669 84.6045 
20178 5 12.5598 12.2564 10.4158 -7.81857 -12.5865 -22.5114 
20183 5 12.8988 8.51128 10.3587 -3.61075 -10.8528 -7.36754 
22734 5 8.97942 12.4092 10.1072 -12.3022 -12.5245 -17.3497 
22723 1 10.5486 10.4168 9.97488 -3.12086 4.17872 9.65482 
22731 5 9.11607 8.33188 9.85191 -15.6022 -24.4244 -22.4039 
20354 9 13.8366 7.1662 8.02076 -1.19841 -12.307 -25.5147 
17489 7 15.3685 7.53149 7.27379 -6.21889 -2.26597 -3.78986 
17490 7 16.4114 7.08597 6.51817 -0.225474 0.0337975 -0.313047 
17451 6 15.9423 6.78743 7.29642 -18.6649 -17.1998 17.7112 
17555 4 19.5148 6.40419 9.24816 -10.8062 2.33783 -19.231 
20102 1 16.4765 6.46221 9.86905 11.1317 0.486178 19.4221 
20179 5 15.0791 12.3713 9.86379 2.74473 3.69447 -11.5918 
20111 5 15.0953 8.51182 9.52882 -26.126 -13.6618 -14.6596 
17802 9 19.4832 11.878 7.51898 -0.106459 -0.098468 0.15976 
17554 3 19.6317 8.68088 7.9737 -1.90046 -5.33173 6.16986 
17801 9 19.3812 9.57046 8.10065 0.663134 12.1547 6.29896 
17558 3 19.3121 11.5602 8.35726 -4.20122 -2.05678 -0.176458 
17552 2 19.7279 7.97853 9.40881 25.2729 57.4804 61.6838 
17553 2 19.7446 12.5897 9.5152 42.5821 42.7496 67.9657 
17559 5 21.2085 12.1329 9.83297 6.82455 -0.441119 -10.6621 
17557 5 21.1128 8.33065 9.93016 0.880072 -11.5084 -15.9384 
17556 5 18.49 8.44005 10.194 12.466 -3.88591 -7.81778 
17631 5 18.754 12.2185 10.6826 1.98093 -5.5416 -3.50581 
20084 1 16.8199 10.2664 10.3615 -11.6247 -4.72326 -0.700095 
17566 7 22.7737 6.49197 7.09029 0.0945126 0.019088 0.0518307 
17525 6 23.2369 6.30614 7.97014 -29.9329 -6.00031 17.2262 
15249 9 26.4199 12.3989 7.50271 0.843149 0.686277 0.253386 
14924 1 28.8784 6.30371 10.2599 25.2039 20.0578 9.30535 
17459 1 22.8153 6.36449 10.4136 -83.174 -68.2451 38.6094 
17550 1 22.6813 10.1773 10.109 18.8204 17.6981 8.17218 
15248 9 25.0074 7.30471 8.25379 6.73268 8.87502 8.65098 
15002 3 25.5553 12.1132 7.86039 -4.8023 -8.7729 8.94856 
14932 3 25.8534 7.69566 8.37038 -4.64467 -4.19591 1.45961 
15003 4 25.6929 10.0578 9.40228 -8.9746 -5.88372 -23.1705 
15000 2 25.8234 11.5586 9.33827 29.2904 102.402 73.3843 
14927 2 25.9265 8.52626 9.67582 39.5271 66.7062 72.1334 
15005 5 27.2586 12.0307 9.65026 -1.74805 -12.6288 -17.4106 
14933 5 27.3368 8.19806 10.2714 9.43494 -14.0631 -17.3615 
15004 5 24.794 12.1885 10.2281 1.14968 3.05656 -13.1836 
14907 1 29.0423 10.186 10.3202 23.9396 18.8692 23.0523 
15008 5 24.7476 8.17989 10.6591 15.946 -0.321835 -1.89269 
14899 6 29.4402 9.94521 7.67407 -3.23176 0.0314438 5.37339 
17637 7 24.0129 13.1402 7.48134 1.61124 0.649328 -0.192763 
25427 5 0.471403 16.2254 10.9577 6.09725 -3.59395 -4.48399 
25424 5 3.05777 19.7432 10.2643 -15.041 -6.20083 -10.1922 
25423 5 0.62854 19.9386 10.7649 4.06705 -4.26325 -10.3232 
25422 4 1.53223 17.8586 9.5283 -9.61547 7.04335 -14.4182 
25421 3 1.35286 20.1653 8.46116 -3.21263 -2.58365 -0.0411891 
25419 2 1.68921 19.4163 9.80763 -41.857 139.666 66.1175 
25358 5 3.0433 15.9649 10.3935 6.02281 -1.21296 -11.8884 
25352 2 1.62447 16.359 9.9389 56.1253 2.2778 37.9207 
25333 1 4.76049 17.9652 10.8964 -5.78944 13.5929 -30.3369 
25357 3 1.27516 15.4524 8.77037 -11.9157 -17.0552 19.2476 
25460 9 1.6173 15.8283 7.87293 0.0950706 0.363354 4.2098 
25349 1 4.58657 14.1062 10.6957 7.18547 16.1953 -7.25757 
22803 5 6.49129 16.0975 10.8756 1.55892 -0.341405 0.170373 
22875 5 6.46084 20.071 11.1158 20.4876 8.14821 7.4106 
25459 9 1.48999 13.6574 8.56205 -1.78221 4.34107 -4.11969 
22801 3 7.03055 16.5942 8.55987 -2.25281 -6.96773 3.95157 
2179 7 -0.387305 20.8468 8.22815 14.4338 2.21518 -6.4416 
22805 3 7.32975 19.3599 8.91011 -8.57656 -8.72366 25.8388 
22908 9 7.54595 19.9046 8.12021 0.0116265 0.260456 6.5415 
22774 6 7.84223 14.1301 6.46407 2.04355 1.25 2.00784 
22907 9 7.21638 17.5067 8.66763 -0.0589097 20.2613 1.85111 
22800 2 7.69826 20.1918 10.1825 72.0342 58.4369 38.6713 
22810 7 9.52718 17.6319 7.67339 -2.04078 0.945513 -2.02597 
22775 6 10.3724 17.5576 8.1234 -17.966 -9.0564 6.69432 
22811 7 11.0269 17.744 7.42304 6.07552 1.04625 -1.26158 
20249 3 13.6146 20.1923 8.5115 -17.5041 -15.9841 19.6983 
22799 2 7.50164 15.6895 9.76752 1.2245 21.0928 72.309 
20181 4 13.1648 15.598 8.7498 -9.58841 -32.1187 -12.0193 
20250 4 13.59 17.8559 9.69511 -13.7533 6.61542 -27.7479 
20247 2 13.6446 19.4223 9.89672 2.23549 28.7034 68.4732 
20175 2 13.7411 16.3389 9.95052 44.6526 117.072 88.6767 
20255 5 12.7826 16.0392 11.1348 -2.69784 -11.1819 -16.3953 
20251 5 12.5994 19.887 10.8751 -0.735089 -0.0251702 10.7618 
22797 1 10.5866 17.8329 10.6706 3.45346 -1.2152 18.1731 
22804 5 8.85928 16.0465 10.2629 -4.63902 -10.9884 -14.5121 
22806 5 9.15709 19.6726 10.6518 26.3944 -12.5645 -11.4436 
20209 6 12.874 15.0323 5.7533 0.470167 -0.362745 1.52342 
20174 8 12.7095 14.4625 7.54514 27.4231 11.119 -53.8894 
22802 4 7.35344 14.1712 9.46207 -20.9443 9.41261 -29.1373 
22707 1 10.7485 14.2517 10.2767 12.1202 10.5001 -2.5658 
20180 3 10.8086 14.0423 7.95232 18.2097 -8.91155 4.84608 
20260 7 13.0324 18.8856 6.99744 0.134086 1.33374 1.26752 
20261 7 12.9162 17.3666 7.33817 -0.523795 10.6309 5.57679 
20401 7 13.4229 15.9899 5.62814 -0.160351 0.311851 -1.28384 
20406 9 10.0189 14.4108 7.4707 -1.27444 2.87584 -2.37551 
20413 7 11.9327 15.1884 5.26927 -0.0683196 -0.0247566 -0.439355 
20222 6 12.7014 18.0477 6.67459 -0.75518 0.710835 -0.982843 
22813 7 7.7456 15.0607 6.62462 -0.0720229 -0.0479685 0.0536115 
22812 7 7.44152 13.8113 7.30537 0.726364 1.44611 6.44403 
17861 7 18.0327 18.1656 5.18632 -0.0414772 -0.0257441 -0.195577 
17849 7 19.1146 19.332 5.5722 -0.0527569 0.152537 -0.56632 
17657 6 18.7692 18.3451 5.88217 -4.85379 -2.67643 15.2652 
20252 5 14.9691 19.7344 10.5394 -8.39352 -13.3289 -17.7935 
20182 5 15.2166 16.0409 10.213 -4.00582 -20.7148 -14.1729 
17622 8 18.5634 18.0799 7.75046 32.1483 28.0089 -13.9862 
17854 9 15.9449 18.6012 8.0719 -0.296865 2.02506 -3.14487 
17628 3 16.7563 18.0742 8.25458 4.08819 -10.0095 9.33039 
17624 4 19.3217 16.6826 8.46567 -7.82793 -11.6071 -3.88113 
17629 4 18.9827 19.4332 8.85904 -13.7211 -12.2605 1.14294 
17621 2 19.6951 15.6526 9.54627 46.1367 95.6513 84.2469 
17623 2 19.5501 20.2671 10.0023 53.4955 25.632 75.5508 
17630 5 21.0316 19.7719 10.2793 12.4369 -2.60336 -15.5941 
17627 5 21.1919 15.89 9.96206 0.9862 -17.8406 -17.323 
20155 1 16.8424 17.9752 10.6946 1.70808 10.4185 -29.2166 
17626 5 18.7672 15.8963 10.7355 -8.41803 -8.87083 -12.7164 
20171 1 16.7158 14.1373 10.3208 4.75496 6.09848 -34.28 
17625 4 19.606 14.0957 9.12525 -6.00915 7.8694 -11.7995 
17564 7 21.4906 17.2833 7.58657 -0.586252 1.57653 -1.24342 
17703 5 18.6795 20.0258 11.2014 -15.3621 -12.3098 -20.9274 
17709 7 19.905 20.6273 7.34679 2.90398 4.9571 4.38364 
20259 7 15.568 20.8847 8.4035 12.2348 3.53133 -2.26045 
17526 6 22.4132 17.452 7.70597 -7.57823 -6.72523 18.0828 
17563 7 22.8092 16.6576 7.3521 0.262018 0.357262 -1.94481 
17619 1 22.5682 17.9268 10.3236 11.3965 12.7101 -33.0757 
15250 9 25.4259 16.554 7.3496 3.24256 4.19155 70.3957 
15006 3 25.6058 15.7572 7.92658 -17.2727 -12.3063 55.4295 
15072 4 25.3173 20.4252 8.40544 -12.9632 -7.96218 -2.44439 
15073 4 25.9599 17.9542 9.15621 -15.8566 5.98512 -35.3948 
15069 2 25.8295 19.4844 9.52152 47.0452 196.519 68.3037 
15075 5 27.2671 19.8707 9.91392 4.86841 -4.31149 -14.7779 
15001 2 25.8934 16.4473 9.39988 31.4507 22.0368 33.9768 
15007 5 27.2951 15.9854 9.7832 -0.538807 -10.5475 -15.9451 
14980 1 29.1857 17.8209 10.1444 -12.655 -20.7034 13.952 
15074 5 24.8028 19.6389 10.6176 -6.08336 -5.49294 -20.0517 
15079 5 24.8396 16.1163 10.4638 8.79038 -3.46438 0.517869 
12533 7 25.4571 18.3754 7.23091 -0.377617 4.45736 5.99432 
17532 1 22.9834 14.1035 10.1761 9.69697 12.2582 8.79628 
14998 1 28.6373 13.9834 10.0874 19.916 24.8669 13.2392 
12492 6 25.1645 17.9196 6.43544 -1.2773 -1.71313 -0.926798 
12532 7 24.2391 17.8074 6.45162 -0.0691345 0.0107357 -0.22782 
17636 7 24.2982 14.6547 7.77674 3.15355 -4.68229 -4.60369 
17597 6 27.3956 19.7327 6.47718 -16.3311 -1.07164 0.919815 
17635 7 27.0344 19.9354 7.31032 6.33547 1.22674 -2.34632 
17596 6 23.5563 13.9987 7.66239 -11.4109 -1.58705 4.68452 
14974 6 28.7308 14.0837 7.53935 -5.76166 -10.9187 7.46337 
17634 7 26.9707 18.9124 6.11254 0.288216 0.569479 -0.151756 
15084 7 28.6931 18.2675 6.90767 0.590631 2.77086 -1.5189 
15012 7 28.1952 14.867 7.30744 1.77509 1.79823 -1.76053 
15044 6 29.2899 17.8272 7.55162 -18.3842 -15.3386 14.1264 
15011 7 29.5706 14.1102 6.99075 5.04746 0.875037 -0.29755 
25461 9 1.63963 21.1191 8.56579 -0.454205 9.02095 -6.09358 
25417 1 4.459 21.7465 10.9217 -16.1625 -19.2623 -6.66907 
24923 5 0.754769 27.5218 10.9484 5.9609 1.80351 -2.38676 
25425 3 1.35108 22.98 8.77836 -10.445 -8.31983 18.5702 
24927 5 0.559259 23.61 11.1153 15.7362 -1.51296 6.84586 
25426 5 3.10363 23.8017 10.4009 3.63093 -9.19349 -9.50343 
25420 2 1.64879 23.9265 10.0018 35.2248 97.5222 60.0088 
25401 1 4.97038 25.5329 10.7242 11.1408 4.79005 -4.39259 
24924 5 3.18735 27.1766 10.4054 -6.22986 -6.19455 -14.3603 
24922 4 1.38256 25.4386 9.75254 -16.3671 10.3611 -17.242 
24919 2 1.7823 26.9563 9.95451 0.844423 144.843 61.5598 
24921 3 1.55556 27.7248 8.56562 -3.22802 -0.950085 8.3999 
25462 9 1.60156 23.3783 7.96981 -0.0558563 0.118414 1.81055 
22871 5 6.64021 23.6959 10.9095 4.92016 -4.58416 -5.09429 
25451 9 2.36751 27.8615 8.13061 0.0518613 0.482011 1.54327 
22375 5 6.78156 27.3777 11.2762 2.18701 -4.13864 -3.97403 
20355 9 13.7553 21.1037 8.67011 -2.62185 21.2831 -0.953015 
22873 3 7.36095 26.8242 8.94079 -1.58407 -2.91011 22.9968 
22910 9 7.83453 27.1872 8.16884 0.0154588 0.302656 5.19738 
22881 7 10.5673 22.2037 7.78641 0.174755 0.149024 -0.599787 
22880 7 12.0072 21.7432 8.22322 12.0607 4.42137 -4.63618 
22869 3 7.56442 24.0265 8.5961 -0.857897 -1.28876 0.738878 
22842 6 11.0399 21.8185 8.50693 -11.5111 -8.51096 3.01919 
22909 9 7.42422 24.9915 8.72358 -0.310431 9.48893 -0.664021 
22870 4 7.80675 21.6814 9.76784 -9.79193 13.0069 -14.6162 
22781 1 10.8959 21.6885 11.0129 -25.7606 -19.3338 23.5761 
22868 2 7.76545 27.7412 10.1816 37.3214 98.057 39.2909 
22867 2 7.78902 23.2324 9.92461 53.4507 189.214 71.9696 
22381 7 12.0152 26.341 8.4485 11.068 9.21719 -1.52134 
20253 3 13.4682 23.4016 8.82795 -29.2395 -27.6968 7.5681 
22380 7 10.8121 26.2531 7.54966 0.0744959 0.106783 0.0966691 
22342 6 11.2091 25.8188 8.3988 -19.4421 -2.80883 30.1067 
20317 3 13.3219 27.8427 9.08682 -10.1582 -13.0751 -8.40056 
20248 2 13.7696 24.0294 10.2263 7.74441 4.93219 110.195 
20318 4 13.624 25.5447 10.0164 -28.9079 -19.1103 -43.5745 
20315 2 13.7788 27.0543 10.3348 50.1703 -15.2532 82.8971 
22865 1 10.6865 25.3992 10.9226 12.9079 11.1864 33.0138 
22872 5 9.17462 23.6871 10.462 5.38899 -15.3847 -14.0313 
22874 5 9.24947 27.6706 10.5948 6.69867 -9.80909 -10.2453 
20356 9 12.5954 23.6209 8.49206 10.2656 3.86096 -10.0508 
25431 7 14.1509 26.52 7.83751 1.08648 4.74493 6.73948 
20323 5 12.8525 23.6161 11.429 2.04622 -8.16115 0.726104 
25430 7 14.093 24.9955 7.86813 1.70009 4.72628 10.3061 
25395 6 14.4016 25.7329 7.27378 -0.140017 0.0911065 -0.158421 
20258 7 15.2294 22.3163 8.12146 1.37102 0.125609 -1.40783 
20223 6 16.0015 21.7513 8.2238 -7.36604 -1.24798 8.99259 
20245 1 16.5342 21.695 10.8038 16.4145 20.4358 41.2766 
17698 4 19.4354 21.7483 9.56107 -11.9674 -3.69202 -28.4001 
20320 5 15.2214 27.4242 10.856 4.54291 -10.9045 -15.3234 
20254 5 15.1801 23.5949 10.561 -15.8535 -11.8464 -20.4703 
20329 7 17.2434 26.6466 8.28058 4.01705 3.1976 -3.74042 
20328 7 16.0419 25.8023 7.61998 1.70557 -0.0165389 -0.0998364 
17803 9 18.6355 24.4714 8.19816 9.13478 9.21076 -0.734387 
20290 6 16.6573 25.8385 8.42977 -27.2106 -4.61668 8.89392 
17697 3 19.4666 23.9299 8.24968 -7.27938 -15.412 8.16355 
17701 3 18.7572 27.5768 9.07536 -11.274 -29.5216 -2.89181 
17695 2 19.6311 23.298 9.64847 1.49132 5.46719 78.7779 
17696 2 19.6976 27.9701 10.2409 33.0992 100.765 90.5806 
17700 5 20.9899 23.6351 10.1729 -17.2422 -7.51578 -18.9049 
17702 5 21.0953 27.3466 10.1236 7.7099 -13.7097 -20.6178 
17699 5 18.7076 23.7838 10.7613 -3.15098 -4.37623 -2.43992 
20229 1 17.0048 25.6018 10.9426 18.4613 14.9737 -20.1047 
17708 7 20.0702 22.1005 7.0657 -0.244041 1.39885 0.811783 
17670 6 20.1319 21.2549 6.64674 -0.74219 0.852187 -1.28491 
17707 7 20.7868 25.2363 7.6314 4.67734 4.92263 -0.0580321 
17706 7 21.1787 26.5559 8.43819 0.130592 6.52139 6.68946 
17671 6 21.5933 25.7538 7.94146 -0.409549 -4.81074 5.3395 
17804 9 18.1596 28.2261 8.79174 4.30441 -0.361557 -3.14194 
15302 9 22.12 22.0167 7.2663 -10.7633 2.2857 -0.635163 
15082 7 28.9341 21.4367 6.98265 -0.124457 1.91324 -3.03702 
15309 7 26.1711 21.1856 5.56242 -0.051812 0.353797 -0.580796 
15297 7 25.7773 22.9358 5.36905 0.0243364 0.421913 0.0405553 
15076 3 22.8653 21.7306 7.945 5.12265 -10.2601 6.81509 
15105 6 25.4296 21.9972 5.7434 2.52973 2.80041 8.72085 
15067 1 28.5009 21.8246 10.3102 6.84767 13.4777 15.0624 
17603 1 22.8719 21.8054 10.3091 41.588 30.8654 64.5529 
15070 8 24.6898 21.8654 7.53391 8.73958 22.028 -5.4205 
15157 7 24.761 24.7113 6.5409 0.0822507 1.43496 -2.18262 
17693 1 22.4585 25.6458 10.3024 35.236 46.8209 71.2397 
15118 6 24.3516 25.0692 5.80024 0.217305 -0.0168931 -0.0818106 
15156 7 23.4675 25.4068 6.08223 0.347464 0.0659654 -0.0146541 
12750 9 28.7793 27.0604 8.02173 -18.1245 -1.30532 -3.51214 
15145 3 25.8709 28.1424 8.32624 -25.0083 -9.96373 23.9522 
15077 4 25.2347 23.1977 8.50469 -14.8653 -21.7375 -11.4035 
15146 4 25.5466 25.6818 9.29943 -7.81409 17.7823 -15.4696 
15143 2 25.8227 27.2278 9.63665 33.7016 57.8323 40.9361 
15071 2 25.6377 24.1622 9.58877 42.7701 136.814 68.4644 
15078 5 27.0823 23.775 9.8664 3.44418 -1.44803 -12.0438 
15148 5 27.2019 27.5255 10.2775 11.4183 -13.2691 -15.358 
15051 1 28.9278 25.6837 10.4438 0.551664 13.1885 51.4418 
15147 5 24.7278 27.7419 10.5663 3.82493 -2.00008 -7.85527 
12524 3 29.1596 26.0649 8.01414 -11.3406 -1.30793 8.98418 
15045 6 29.2043 21.7754 7.82857 -18.5638 -11.041 5.07845 
15251 9 25.5134 27.6474 7.63837 -0.0848745 -0.299951 15.5516 
15151 5 24.6677 23.8201 10.7274 -5.0161 -8.12191 -15.5341 
25272 7 0.642302 4.27297 16.1695 5.30544 -0.650715 10.8716 
25198 5 4.5419 2.55475 12.6561 -16.8541 -10.3158 -10.8772 
25195 5 4.3158 -1.09258 12.7632 -0.111559 -3.15121 4.03797 
25511 9 -0.0587109 1.0853 16.2021 -17.6899 4.04095 -1.39833 
22635 1 6.05896 0.692999 12.8525 -26.1186 -7.83529 -6.40381 
25268 5 2.06322 2.89899 12.9931 -0.216254 -10.72 -22.3249 
25258 1 0.250924 4.4912 12.7638 17.9598 10.1299 5.03769 
25207 1 0.476342 0.786529 13.0733 16.8979 43.1504 28.4715 
25191 2 3.47612 3.03985 13.5769 20.2583 119.913 58.6474 
25263 4 3.57926 4.53329 13.9916 -27.6967 9.42337 -32.8458 
25197 4 3.26023 2.0922 14.7531 -14.6085 -27.9053 -12.2554 
25192 4 3.04502 -0.482259 14.848 -7.17794 -10.0117 -2.88333 
25196 3 0.667555 1.07151 15.4583 4.78977 -17.5306 18.2125 
25190 8 2.51049 0.915272 15.8374 -18.1623 8.35081 -60.8718 
25240 6 3.34161 0.972963 17.5498 -4.40897 3.40398 3.86771 
25519 7 3.2163 0.174859 18.2405 -1.52932 2.70644 -12.9732 
25507 7 3.04509 1.88081 18.1791 -1.79245 10.0561 -10.7339 
25308 6 0.11343 4.38254 15.3186 -19.5431 8.69169 21.1328 
25270 6 1.4481 4.72869 18.0306 2.22654 3.67069 -13.2664 
22655 1 6.37544 4.67075 12.8239 -6.79534 4.79034 -4.50148 
25194 5 1.89442 -1.62182 13.1754 -0.41406 -12.7016 -18.3957 
25189 2 3.31878 -1.5892 13.8009 46.0715 118.112 91.9998 
25309 7 2.40409 4.37756 17.6099 60.9887 -0.155003 7.49047 
22683 6 6.33556 0.785356 15.4275 -9.19679 -8.72606 7.11012 
22644 3 6.88849 4.41111 15.2114 12.8815 -15.962 10.7828 
22650 7 6.09066 1.19376 16.3018 -0.304961 1.77983 8.96689 
22959 9 6.13124 4.44244 15.8805 -3.20684 3.59539 -0.62904 
22649 6 3.95844 4.23368 16.8431 -2.92164 -5.47288 -20.0477 
22684 7 3.82686 3.35625 16.508 -1.52583 -3.27918 0.82587 
22685 7 3.83737 4.82679 16.087 -1.1257 6.40489 8.45634 
22687 7 5.66479 0.808683 18.8483 5.65234 5.65962 -1.44336 
20062 7 5.62669 2.70611 18.0976 -3.62412 5.32928 -2.29537 
20023 6 6.38122 2.12455 17.9498 -3.53094 -7.3226 -11.5195 
25310 7 1.74264 5.41779 18.6108 -1.29606 -12.8846 -2.58816 
25472 9 2.16699 3.53159 19.1973 4.46601 2.12889 98.1145 
20061 7 6.97143 2.53904 18.6842 12.9441 3.13671 12.4152 
25312 7 -0.342112 4.67446 18.6605 8.21749 -1.03215 -0.470242 
25201 6 0.291277 0.598238 19.0998 -6.69477 -4.19185 10.8528 
22651 7 7.15475 0.408613 15.7981 -0.977354 -2.13076 -0.0995836 
20063 7 13.9792 -0.472889 17.8754 4.24678 1.66463 3.03537 
20022 6 13.4015 -0.685808 17.0852 0.789548 -12.771 -1.26796 
20101 7 8.46951 0.80068 17.2705 2.18111 1.53107 -0.525823 
22931 9 9.46873 -0.926991 15.7413 0.198989 2.26997 -19.7264 
22643 5 10.3472 2.57234 12.1955 -3.00233 -4.3467 -8.22096 
20083 1 12.0539 4.57824 12.2941 24.8756 15.1567 25.0206 
22642 5 7.78438 2.32799 12.6693 -2.01411 -8.94715 -20.6888 
22572 5 10.3915 -1.19034 12.4814 -1.51235 -7.84031 -7.58574 
22647 5 8.01803 -1.15376 13.3887 9.49036 -12.9741 -17.4307 
20029 1 12.4935 0.818447 12.5759 4.38923 14.514 -11.9981 
20095 5 13.8672 2.81253 13.0198 -10.0273 -11.4782 -13.8571 
22637 2 9.23854 2.21284 13.1776 47.9237 45.0586 70.9398 
22565 2 9.47766 -0.798971 13.6553 32.7694 60.9725 54.3783 
22641 4 9.6135 0.790931 13.697 -25.6213 -1.44665 -28.929 
22640 4 9.10375 3.21619 14.2882 -13.797 -19.2321 -8.66111 
20060 6 12.3804 1.08418 15.0912 -0.343303 -7.66542 10.5666 
20025 7 11.3622 1.05552 14.9643 16.5186 1.68531 -2.86135 
22638 8 8.77969 4.5067 15.4842 7.11759 19.0058 -60.1999 
20024 7 12.5619 0.427894 15.8855 3.57274 18.0519 15.4478 
22688 6 9.73263 4.49987 17.1031 -8.33023 2.25938 3.38208 
20130 6 8.9583 -0.0517946 17.0897 -3.76795 4.97809 -24.4505 
20016 5 13.8732 -1.10957 13.0216 4.96749 -14.9377 -18.2584 
20100 7 8.70594 -0.504041 17.888 -0.479766 -6.80649 -0.750233 
22967 7 9.4507 5.38619 17.7978 2.12924 6.84949 6.66968 
22571 3 9.90999 -1.42653 15.0055 -24.2175 -20.4009 0.569013 
20135 7 11.79 0.631119 18.0798 4.74654 4.69884 0.360603 
20134 7 10.2433 0.927004 18.2505 16.409 5.7648 3.12445 
22955 7 9.42897 3.72539 17.7896 -2.11642 -7.22427 -34.1961 
20096 6 11.1258 0.869046 18.7775 -1.1579 -12.095 12.7655 
20064 7 14.1157 -0.847793 16.425 14.7542 2.28319 14.5863 
20379 9 14.4074 1.83547 15.3047 3.86542 4.14625 -4.67045 
20099 7 11.2118 4.55825 18.5912 0.472598 1.85435 -4.60429 
25271 7 -0.350563 5.25507 15.6074 9.16921 8.15828 -2.58807 
15106 6 26.6946 23.2551 17.2361 1.5394 -16.7349 30.3862 
20378 9 15.4007 0.0444891 14.8487 -0.499887 85.3242 32.1079 
20012 2 15.2359 -1.61828 13.5115 14.7913 139.437 84.6896 
17469 5 19.9364 -1.30131 13.4326 0.0664938 -12.2532 -9.94625 
20017 5 16.2815 -1.21496 12.5395 10.1468 -1.24367 -2.116 
20020 5 16.2894 2.4578 12.6312 -6.94029 -5.23338 -11.0517 
17477 1 18.4308 4.50707 12.7514 49.3345 40.6554 57.4306 
17458 1 18.218 0.637135 12.871 49.5685 37.4596 7.03741 
17464 5 19.9587 2.61017 13.0923 -3.32282 -13.1799 -15.0269 
20014 3 15.3481 -0.927596 14.9324 -27.1177 -16.2906 34.8236 
20013 2 15.2355 2.86552 13.6686 27.5835 -2.4571 58.9251 
20089 4 15.4847 4.41259 13.8828 -20.7976 3.80505 -24.2145 
17460 2 21.2934 2.30374 13.8302 63.6018 164.539 42.1871 
17386 2 21.2555 -0.760946 14.0881 52.6391 113.735 39.5686 
20019 3 15.319 1.9336 14.9534 -15.7924 -0.811073 13.649 
17466 6 17.8241 0.607751 15.3574 -31.6713 -21.8571 4.04322 
17494 7 16.8835 0.59572 15.6053 5.43977 8.2191 -5.77972 
17493 7 18.2199 0.99468 16.1501 1.34005 4.48335 -2.63213 
17471 6 19.5202 2.30288 16.8263 -29.136 -17.1107 -55.3661 
17510 7 19.8399 1.44428 17.0446 -0.262932 -6.45739 -2.68405 
17509 7 19.5916 2.79799 17.599 -3.49963 -12.5533 -22.4012 
17463 4 21.2166 0.803669 14.1626 -11.9457 15.6071 -22.4817 
17508 6 17.97 4.47627 15.3037 -17.029 -8.35928 11.452 
14959 7 21.01 -0.54095 18.4555 0.617161 0.178482 3.19758 
14960 7 21.1724 0.916265 18.4866 -1.00608 -1.96788 4.5197 
17391 3 21.6361 -1.43126 15.4178 -14.0627 -20.6428 11.7679 
17825 9 21.6729 -0.746727 16.1255 -0.325543 6.66241 68.431 
17462 3 21.3348 3.2879 15.035 -27.3149 -17.6218 8.75109 
14918 6 21.4473 0.150838 17.9745 -4.00188 -8.80259 -14.8959 
17826 9 20.6429 2.9798 15.7009 6.68984 5.5339 17.6445 
17472 7 18.283 3.80731 15.9367 3.69854 5.9644 -4.32604 
17473 7 17.0087 4.31302 15.2564 11.2906 1.08366 0.421709 
17827 9 21.5275 5.09285 15.1986 -8.83839 6.8505 -23.1313 
17474 7 17.8262 -1.61503 15.6126 5.10484 3.05975 -4.34003 
17544 6 17.7122 4.60605 18.9091 -23.6274 -4.48517 13.4063 
17457 7 16.6281 0.146522 19.057 10.1487 4.66863 -0.516185 
12587 7 29.4739 27.5755 15.8706 27.416 6.8066 -4.77017 
17582 7 18.1179 3.88336 18.3888 6.53765 2.15833 -0.648852 
14905 7 22.1488 5.25546 18.9681 9.63867 2.55629 -7.08116 
14951 6 22.8432 4.53878 18.9985 -17.081 -13.101 17.4842 
15310 7 26.6952 -0.94056 16.9859 0.439352 11.4165 1.46064 
14904 7 23.2037 4.50734 18.0816 0.963418 -0.0024978 1.02851 
17392 5 22.3788 -1.113 13.0479 14.1456 -0.733993 9.07749 
14833 2 27.436 -1.7351 13.7653 4.23105 -2.93366 84.4345 
14837 5 26.0685 -1.25524 13.3193 -23.4097 -15.8012 -15.1983 
14835 3 27.8444 -1.10968 15.1259 -20.2697 -36.1955 -49.3945 
17465 5 22.4822 2.65522 12.8638 2.50554 0.710657 0.734746 
14838 5 28.4591 -1.17305 12.8109 -7.08842 -9.85587 -20.7767 
14840 5 28.4301 2.34442 12.9979 -0.32397 -0.810862 2.25088 
14906 1 24.3647 4.44957 12.9572 45.7734 36.2115 -57.8246 