ITEM: TIMESTEP
520000
ITEM: NUMBER OF ATOMS
25517
ITEM: BOX BOUNDS pp pp ff
-3.8959205201285124e-01 6.0088135642019459e+01
-1.9452389155355383e+00 5.9115524189537531e+01
-1.2206056431032383e+01 1.1390111600702880e+02
ITEM: ATOMS id type x y z v_stressx v_stressy v_stressz 
25292 7 5.89857 3.03966 7.5916 -2.47068 -8.50737 -6.20792 
25293 7 5.98077 1.53035 7.7064 -1.90411 -5.92876 -1.94408 
25252 6 5.35811 2.25094 7.51796 -6.33828 -3.22556 0.241177 
25287 5 0.61597 0.755495 10.7564 7.87905 -1.84458 3.91602 
25283 5 2.94291 4.2301 9.842 10.9615 6.60506 -12.95 
25281 4 1.3887 2.44216 9.07367 -12.8139 1.90312 -15.9937 
25280 4 1.07853 5.00258 8.46007 -12.7697 -8.58864 -6.66309 
25277 2 1.45655 3.94107 9.49571 51.1237 35.6813 79.0609 
25215 5 2.99957 0.588718 9.72621 -14.5762 -10.1801 -11.8924 
25209 2 1.59287 0.935181 9.44522 7.34367 -57.891 71.5952 
25188 1 4.8243 2.58953 9.97468 5.42012 1.35968 14.2685 
25214 3 0.796635 0.0137284 8.44439 -1.90195 -4.43644 3.0933 
25282 5 0.520916 4.37471 10.6565 -15.0571 -14.3925 -18.9175 
25458 9 1.40812 -0.435335 7.83607 0.018293 2.09199 1.71163 
25206 1 4.52732 -1.17961 10.115 34.8192 38.0967 20.4494 
22660 5 6.52822 0.875659 10.2203 -1.11051 -5.87695 -16.9911 
22735 5 6.623 4.87348 10.5536 2.50082 -9.05118 -14.8244 
25505 7 1.83983 5.65447 5.50835 -0.0557394 -0.161199 -0.296432 
22662 3 7.17647 4.29529 8.22411 -12.0495 -23.2644 -18.593 
22658 3 7.30314 0.346889 7.89736 -14.9528 -15.1313 -11.301 
22905 9 7.65252 -0.485879 7.46068 0.0217395 -0.416181 -4.48506 
22906 9 7.50322 4.57024 7.35908 -2.75672 4.35764 9.71753 
20115 7 11.1372 2.292 6.49758 0.445465 -0.00872802 -1.15669 
22656 2 7.7059 0.365729 9.40584 21.3046 74.0398 60.4984 
20116 7 12.1136 2.88755 7.40659 19.6851 6.66603 2.52037 
20078 6 11.1398 2.86581 7.23657 -15.9403 -11.6 2.06882 
20106 3 13.741 4.72985 7.46261 -15.7332 -11.0317 42.2311 
22657 2 7.60419 5.1024 9.41016 54.0686 -15.5727 21.8706 
20036 3 13.619 0.47741 7.57109 -16.5194 -19.5233 16.8668 
20107 4 13.6664 2.6833 8.8298 -17.6864 -14.007 -33.4725 
20104 2 13.8784 4.18168 8.97251 30.9441 36.5023 94.6628 
20031 2 13.7132 1.1448 8.96008 62.0005 163.848 12.7356 
20108 5 12.6966 4.70757 9.81807 14.8944 11.9587 1.53014 
20112 5 12.4932 0.846951 9.91178 10.983 -0.440193 5.18553 
22654 1 10.4859 2.78478 9.68506 11.7157 10.4276 11.4468 
22661 5 9.03983 1.11007 9.56315 -7.47309 -6.54689 -16.0476 
22663 5 9.10858 4.7108 9.73761 4.24394 -12.842 -15.3856 
22563 1 10.886 -1.13469 10.1589 -0.142678 -0.501422 -14.6404 
22659 4 7.7627 -1.12896 9.68153 -9.18111 -34.7221 -34.4059 
22629 6 11.3751 -1.065 7.76545 -16.7471 5.1062 2.84823 
22669 7 11.9249 -0.207968 7.44815 1.3062 5.20276 -1.33797 
20352 9 13.8605 1.22514 6.87465 0.717434 12.5249 14.7099 
20189 7 14.2777 3.18994 6.51456 0.288065 13.5132 8.46672 
20353 9 14.543 5.23857 7.22704 7.73564 13.2097 16.8352 
20148 6 14.5671 2.45013 5.87332 0.144277 0.0578389 0.0943932 
22740 7 11.2703 5.5881 6.8279 3.28554 1.4845 -1.14983 
22738 7 8.76742 5.41578 5.90114 -0.689301 0.698845 -1.34188 
22701 6 7.85394 5.37142 5.69312 0.477385 -0.312784 7.85682 
22739 7 7.886 4.86164 4.87022 -0.0111027 0.0202635 0.00852654 
22670 7 11.9327 -1.89861 7.72342 1.04771 1.6325 -5.35144 
20188 7 15.4435 2.20345 6.22553 0.813922 -0.138134 0.0917931 
20037 5 15.0057 0.565552 9.66218 -0.828942 -6.92747 -12.7597 
20118 7 17.8719 2.63796 7.70159 5.67226 -0.345453 -2.90829 
20117 7 17.6995 1.17882 7.44002 3.02719 2.54181 -4.64847 
17799 9 19.455 -0.241526 7.33338 0.32721 6.60821 18.0473 
20077 6 17.1284 2.01775 7.60787 -23.2852 2.41973 26.6068 
17484 3 19.536 4.02271 8.03155 -4.15741 -2.53028 -2.36056 
20109 5 15.1822 4.68195 9.53593 -5.8415 -7.36675 -17.3402 
17480 3 19.3808 0.510653 7.95906 -16.5198 -32.0459 10.4032 
17478 2 19.7385 0.13463 9.405 32.5418 34.2719 47.6066 
17479 2 19.7269 4.90401 9.32133 46.2197 112.795 61.2786 
17485 5 21.0972 4.45706 9.83859 4.92685 -15.8359 -17.0419 
17483 5 21.125 0.57616 9.92672 5.22314 -9.87115 -13.1182 
17482 5 18.7273 0.612358 10.4453 0.929661 -3.62365 -6.3934 
17560 5 18.5746 4.39351 10.2378 -1.23684 1.62472 -11.3365 
20011 1 16.7883 2.43064 10.1919 50.5777 45.8333 48.2521 
20028 1 16.5417 -1.33752 10.1131 23.8071 17.0972 9.59314 
17481 4 19.613 -1.37684 9.30614 -12.3587 -19.6748 -37.8454 
17800 9 20.2785 3.41394 7.96437 0.297022 -2.90941 -5.46093 
20002 6 16.2002 -1.21507 7.53432 -10.4491 -7.58005 13.3369 
20044 7 15.5857 -0.449442 7.68688 4.3318 8.6015 -2.8588 
20043 7 16.3516 -1.12082 6.60323 0.281883 0.200398 -0.835996 
17377 6 19.8786 -1.6773 6.3322 0.248017 -0.13894 -0.0131818 
17415 7 20.5742 -1.92657 6.98281 2.85892 2.47928 2.13794 
14864 7 23.6314 3.83266 7.75133 5.585 -4.68943 -1.41936 
14825 6 23.2988 2.969 7.82153 -9.295 -3.80737 1.31249 
14863 7 24.1611 2.53617 7.90018 3.87059 -1.32766 -0.549302 
17476 1 22.5994 2.5974 10.2549 -65.608 -40.9101 59.2149 
14928 3 25.5679 4.59148 8.20809 -31.2023 -50.0733 -47.3466 
15246 9 24.7065 0.00657495 8.04332 7.96892 10.7809 20.0781 
14856 3 25.5405 0.383335 8.16649 -12.5397 -14.7548 10.6914 
14929 4 25.6618 2.47021 9.27814 -17.8158 -35.3058 -34.5768 
14851 2 25.7726 0.935136 9.6021 19.8811 -190.485 76.0786 
14926 2 25.8313 3.99121 9.61155 28.8261 145.876 92.8391 
14857 5 27.172 0.513951 10.0212 -9.76944 -11.7674 -21.3992 
14931 5 27.2703 4.30837 10.1061 -28.431 -11.5335 -18.7584 
14832 1 28.9014 2.41808 10.4207 15.3248 12.1838 53.3845 
14930 5 24.8007 4.37565 10.6576 12.5491 -4.40305 -13.3816 
14934 5 24.7275 0.511689 10.6576 4.57747 -3.74353 -0.623042 
17384 1 22.8636 -1.16741 10.5973 -1.1138 4.058 -7.8033 
14848 1 28.7231 -1.43222 10.2624 14.7998 19.0791 -4.00916 
14898 6 29.1786 2.45721 7.88738 -13.6956 -15.272 6.25859 
15247 9 26.3681 4.66526 7.72718 -1.61662 -1.09328 -15.3115 
14826 6 28.1456 -1.3901 7.71182 1.34986 -3.42326 26.9064 
14861 7 27.5228 -0.59177 7.7367 4.99018 5.8441 -2.30389 
14862 7 28.7608 -1.17174 6.9734 0.155345 0.0381393 -0.0657105 
17565 7 23.8543 5.62398 7.62904 12.5096 3.74239 -1.59529 
17491 7 23.3409 -0.830267 7.25909 0.0959651 0.0715165 -0.455347 
12347 6 29.4782 5.3719 8.00631 -15.2428 -7.13894 4.09116 
14939 7 29.2544 3.33895 7.63004 0.446313 -0.929509 -1.22532 
17492 7 24.1978 -1.77871 8.08715 8.1901 2.39743 -6.29501 
17450 6 23.2929 -1.42611 8.02021 -21.5487 -6.83902 19.191 
25291 7 5.22591 6.53661 7.32751 1.17971 1.65687 -3.14364 
25290 7 3.82687 6.55555 6.86919 -0.686968 1.66342 -4.39934 
25253 6 4.33607 6.71227 7.63615 -9.63489 -11.6423 1.91018 
25517 7 1.84279 7.29014 5.50902 -0.0262679 -0.0579008 -0.552629 
25313 6 1.21101 6.45671 5.78137 6.03287 -5.31041 30.2836 
25362 7 1.19888 10.608 6.31952 -0.0169734 -0.0176658 -0.0209548 
25275 1 4.36027 6.50413 10.1833 4.13952 12.9783 -2.4292 
25278 8 0.639374 6.49188 7.63496 52.9175 32.0923 9.51127 
22958 9 3.89074 10.3239 7.2783 -3.47828 1.48284 0.250152 
22732 3 4.70032 10.3548 7.96195 2.38533 -12.5826 13.7298 
25359 5 0.701437 8.49354 11.0939 -9.91918 -10.616 -16.5071 
25356 5 3.08021 12.146 10.2169 9.87537 0.122552 -12.9992 
25355 5 0.535314 12.2845 10.6518 -2.58396 -5.42296 -8.25055 
25354 4 1.48185 10.2856 9.54639 -13.8335 13.7842 -27.3701 
25353 3 1.39194 12.6945 8.41831 -11.8893 -7.80735 4.32016 
25351 2 1.63225 11.8296 9.72046 41.0109 48.7951 68.0946 
25286 5 2.93236 8.28049 10.0288 -5.59296 -15.8816 -18.9237 
25285 4 0.892127 7.85648 8.74192 -20.7272 -18.4878 -4.56625 
25279 2 1.49492 8.71367 9.83417 16.6274 98.2825 78.2651 
25259 1 4.86194 10.2149 10.3927 8.32189 9.54828 62.9218 
25327 6 1.60703 9.7444 6.34125 2.35187 1.42173 -0.810504 
25363 7 1.38635 9.50649 7.2315 0.490308 2.66373 1.43102 
22807 5 6.5607 12.2849 10.8694 -15.6703 -14.4165 -17.8842 
22730 5 6.65234 8.34528 10.5398 -4.80904 -14.8277 -13.3101 
22726 8 6.48614 10.4372 7.49213 -1.64709 17.9323 -26.0667 
22761 6 7.05704 10.8316 5.66761 1.76715 2.50409 6.80258 
22733 4 6.9844 11.7221 8.61372 -10.8619 -12.6911 -2.47194 
15101 7 23.6032 21.6918 19.1676 2.3215 14.6542 -2.87942 
22728 4 7.23016 9.05362 8.29312 -12.8467 -20.2629 -5.63777 
22953 7 7.91026 10.1976 5.3838 -0.0664682 0.100218 -0.651643 
22965 7 7.33207 11.8331 5.45166 -0.048889 0.141827 -0.276513 
22741 7 11.5 7.01103 7.05421 2.60908 -0.0294627 -1.5117 
22700 6 10.8104 6.36788 7.23855 -16.1173 -2.14424 18.1495 
22636 1 10.9188 6.69179 9.82281 4.75725 9.5795 11.9786 
22729 4 7.48133 6.61374 9.11192 -11.1435 -8.50015 -27.3044 
22668 7 10.5831 8.59932 7.42923 1.90546 4.35151 -3.12168 
22725 2 7.70374 8.13304 9.39568 27.0203 31.8045 96.2299 
22727 2 7.53968 12.6129 9.75953 16.7535 132.646 80.4366 
22630 6 10.7174 9.56513 7.55044 -8.19748 0.718263 5.22493 
22667 7 11.6785 9.56 7.58776 1.27528 0.732042 -1.29932 
20110 3 13.3722 8.00482 7.87861 -11.0713 -1.15193 -4.12144 
20176 4 13.3404 12.979 8.33811 -6.56466 -6.94672 -4.00201 
20177 4 13.5478 10.5013 8.95979 -6.28769 -0.425694 -16.5304 
20173 2 13.7057 11.9908 9.40771 33.4145 -4.76042 77.2649 
20105 2 13.7244 8.93675 9.12343 -1.71456 6.81293 86.6042 
20178 5 12.5598 12.2564 10.4158 -7.60977 -12.6301 -22.6704 
20183 5 12.8988 8.51128 10.3587 -3.40695 -11.1013 -7.98713 
22734 5 8.97942 12.4092 10.1072 -12.4867 -12.5241 -17.6757 
22723 1 10.5486 10.4168 9.97488 -2.95844 4.08202 9.6606 
22731 5 9.11607 8.33188 9.85191 -15.6699 -24.272 -21.9643 
20354 9 13.8366 7.1662 8.02076 -1.10986 -12.2951 -25.2574 
17489 7 15.3685 7.53149 7.27379 -6.22105 -2.27045 -3.76688 
17490 7 16.4114 7.08597 6.51817 -0.225445 0.0337271 -0.31135 
17451 6 15.9423 6.78743 7.29642 -18.6312 -17.2286 17.4961 
17555 4 19.5148 6.40419 9.24816 -10.7159 2.39467 -18.718 
20102 1 16.4765 6.46221 9.86905 11.0917 0.227524 18.9459 
20179 5 15.0791 12.3713 9.86379 2.6486 3.66811 -11.7495 
20111 5 15.0953 8.51182 9.52882 -26.1594 -13.8006 -14.9753 
17802 9 19.4832 11.878 7.51898 -0.10938 -0.0983531 0.164713 
17554 3 19.6317 8.68088 7.9737 -1.8489 -5.31207 6.23056 
17801 9 19.3812 9.57046 8.10065 0.604379 12.1568 6.30689 
17558 3 19.3121 11.5602 8.35726 -4.06219 -2.02832 -0.728464 
17552 2 19.7279 7.97853 9.40881 24.7815 58.5115 62.5262 
17553 2 19.7446 12.5897 9.5152 41.7981 42.6078 68.836 
17559 5 21.2085 12.1329 9.83297 6.90729 -0.359658 -11.0696 
17557 5 21.1128 8.33065 9.93016 0.842999 -11.8152 -16.5264 
17556 5 18.49 8.44005 10.194 12.6768 -3.97323 -6.94583 
17631 5 18.754 12.2185 10.6826 1.99699 -5.33203 -2.74163 
20084 1 16.8199 10.2664 10.3615 -11.7146 -4.9393 -0.558539 
17566 7 22.7737 6.49197 7.09029 0.0946236 0.0183178 0.0471096 
17525 6 23.2369 6.30614 7.97014 -29.9534 -5.89636 17.0467 
15249 9 26.4199 12.3989 7.50271 0.84327 0.686171 0.263722 
14924 1 28.8784 6.30371 10.2599 25.3966 20.3883 10.518 
17459 1 22.8153 6.36449 10.4136 -83.2264 -68.3291 42.6287 
17550 1 22.6813 10.1773 10.109 18.9293 17.6569 8.965 
15248 9 25.0074 7.30471 8.25379 6.67443 8.84297 8.79463 
15002 3 25.5553 12.1132 7.86039 -4.82246 -8.792 8.75612 
14932 3 25.8534 7.69566 8.37038 -4.59035 -4.15406 1.22023 
15003 4 25.6929 10.0578 9.40228 -8.96396 -5.94323 -24.092 
15000 2 25.8234 11.5586 9.33827 28.9173 102.614 75.7322 
14927 2 25.9265 8.52626 9.67582 39.092 66.401 76.0458 
15005 5 27.2586 12.0307 9.65026 -1.67782 -12.589 -17.5613 
14933 5 27.3368 8.19806 10.2714 9.48454 -14.0148 -18.1813 
15004 5 24.794 12.1885 10.2281 1.23405 3.16407 -12.933 
14907 1 29.0423 10.186 10.3202 23.9267 18.7496 23.3713 
15008 5 24.7476 8.17989 10.6591 15.6984 -0.375132 -2.41654 
14899 6 29.4402 9.94521 7.67407 -3.23622 0.0360197 5.2878 
17637 7 24.0129 13.1402 7.48134 1.61022 0.649158 -0.181576 
25427 5 0.471403 16.2254 10.9577 6.00454 -3.75062 -4.10214 
25424 5 3.05777 19.7432 10.2643 -14.9417 -6.29722 -10.0984 
25423 5 0.62854 19.9386 10.7649 4.04696 -4.3046 -11.229 
25422 4 1.53223 17.8586 9.5283 -9.6522 7.11907 -14.5296 
25421 3 1.35286 20.1653 8.46116 -3.22014 -2.54632 -0.0798552 
25419 2 1.68921 19.4163 9.80763 -42.0269 139.481 66.6761 
25358 5 3.0433 15.9649 10.3935 6.13635 -1.13742 -11.4506 
25352 2 1.62447 16.359 9.9389 56.7927 2.81162 37.8556 
25333 1 4.76049 17.9652 10.8964 -5.64252 13.6521 -31.9311 
25357 3 1.27516 15.4524 8.77037 -12.0765 -17.5378 19.5706 
25460 9 1.6173 15.8283 7.87293 0.0909482 0.362406 4.26769 
25349 1 4.58657 14.1062 10.6957 6.80981 16.1528 -11.136 
22803 5 6.49129 16.0975 10.8756 1.48302 -0.52101 -0.00122098 
22875 5 6.46084 20.071 11.1158 20.1315 8.03353 7.26686 
25459 9 1.48999 13.6574 8.56205 -1.33389 5.12467 -4.25691 
22801 3 7.03055 16.5942 8.55987 -2.21139 -6.99444 4.20043 
2179 7 -0.387305 20.8468 8.22815 14.4516 2.17084 -6.38946 
22805 3 7.32975 19.3599 8.91011 -8.48862 -8.60539 26.0717 
22908 9 7.54595 19.9046 8.12021 0.0105101 0.259752 6.5498 
22774 6 7.84223 14.1301 6.46407 2.04836 1.28003 1.92501 
22907 9 7.21638 17.5067 8.66763 -0.0739874 20.28 1.76412 
22800 2 7.69826 20.1918 10.1825 71.6937 57.5685 37.5926 
22810 7 9.52718 17.6319 7.67339 -2.03269 0.94059 -2.05231 
22775 6 10.3724 17.5576 8.1234 -17.9979 -8.98563 6.97694 
22811 7 11.0269 17.744 7.42304 6.07137 1.03049 -1.33521 
20249 3 13.6146 20.1923 8.5115 -17.4655 -16.14 19.5631 
22799 2 7.50164 15.6895 9.76752 1.45572 21.679 73.3733 
20181 4 13.1648 15.598 8.7498 -9.49292 -31.9339 -11.417 
20250 4 13.59 17.8559 9.69511 -13.6677 6.56996 -27.6858 
20247 2 13.6446 19.4223 9.89672 2.41916 29.2807 69.84 
20175 2 13.7411 16.3389 9.95052 43.6693 116.184 87.4494 
20255 5 12.7826 16.0392 11.1348 -2.84547 -11.7005 -16.6375 
20251 5 12.5994 19.887 10.8751 -0.887886 0.0947353 10.3215 
22797 1 10.5866 17.8329 10.6706 3.19099 -1.3598 3.51769 
22804 5 8.85928 16.0465 10.2629 -4.58205 -11.322 -14.9415 
22806 5 9.15709 19.6726 10.6518 26.5144 -12.327 -11.5691 
20209 6 12.874 15.0323 5.7533 0.473478 -0.360018 1.48414 
20174 8 12.7095 14.4625 7.54514 27.3297 10.9517 -54.4195 
22802 4 7.35344 14.1712 9.46207 -20.8842 9.4018 -29.1758 
22707 1 10.7485 14.2517 10.2767 12.7258 10.6184 8.05102 
20180 3 10.8086 14.0423 7.95232 18.2236 -8.85952 5.2798 
20260 7 13.0324 18.8856 6.99744 0.129211 1.33253 1.27072 
20261 7 12.9162 17.3666 7.33817 -0.553942 10.5972 5.49568 
20401 7 13.4229 15.9899 5.62814 -0.160907 0.311184 -1.27739 
20406 9 10.0189 14.4108 7.4707 -1.26844 2.84523 -2.56184 
20413 7 11.9327 15.1884 5.26927 -0.0684087 -0.0247882 -0.43847 
20222 6 12.7014 18.0477 6.67459 -0.746052 0.715327 -0.997647 
22813 7 7.7456 15.0607 6.62462 -0.0720184 -0.0496651 0.0581867 
22812 7 7.44152 13.8113 7.30537 0.723246 1.43772 6.46521 
17861 7 18.0327 18.1656 5.18632 -0.0415287 -0.0258273 -0.195546 
17849 7 19.1146 19.332 5.5722 -0.0527575 0.152355 -0.565114 
17657 6 18.7692 18.3451 5.88217 -4.85565 -2.65555 15.1962 
20252 5 14.9691 19.7344 10.5394 -8.57171 -13.53 -18.4315 
20182 5 15.2166 16.0409 10.213 -3.94908 -20.4778 -14.087 
17622 8 18.5634 18.0799 7.75046 32.2862 27.832 -13.8197 
17854 9 15.9449 18.6012 8.0719 -0.299427 2.01723 -3.23752 
17628 3 16.7563 18.0742 8.25458 4.00716 -9.95592 9.40033 
17624 4 19.3217 16.6826 8.46567 -7.79484 -11.5679 -3.86808 
17629 4 18.9827 19.4332 8.85904 -13.7777 -12.2899 1.3638 
17621 2 19.6951 15.6526 9.54627 46.2968 95.272 82.7663 
17623 2 19.5501 20.2671 10.0023 53.6673 25.3364 74.2137 
17630 5 21.0316 19.7719 10.2793 12.5132 -2.50868 -15.0426 
17627 5 21.1919 15.89 9.96206 1.00223 -17.8152 -16.723 
20155 1 16.8424 17.9752 10.6946 1.86341 10.7168 -19.7319 
17626 5 18.7672 15.8963 10.7355 -8.61322 -8.75346 -12.5143 
20171 1 16.7158 14.1373 10.3208 5.12959 6.49789 0.845555 
17625 4 19.606 14.0957 9.12525 -5.9955 7.81373 -11.9513 
17564 7 21.4906 17.2833 7.58657 -0.607286 1.55774 -1.25844 
17703 5 18.6795 20.0258 11.2014 -15.2255 -12.3447 -21.0838 
17709 7 19.905 20.6273 7.34679 2.90121 4.94601 4.38771 
20259 7 15.568 20.8847 8.4035 12.196 3.57969 -2.2809 
17526 6 22.4132 17.452 7.70597 -7.51057 -6.63403 18.1238 
17563 7 22.8092 16.6576 7.3521 0.250317 0.342912 -1.95103 
17619 1 22.5682 17.9268 10.3236 11.6949 12.7959 -10.671 
15250 9 25.4259 16.554 7.3496 3.25774 4.15807 70.508 
15006 3 25.6058 15.7572 7.92658 -17.2937 -12.2269 55.1113 
15072 4 25.3173 20.4252 8.40544 -13.0915 -7.93671 -2.96119 
15073 4 25.9599 17.9542 9.15621 -15.8492 6.0764 -35.1005 
15069 2 25.8295 19.4844 9.52152 47.1938 196.739 67.2967 
15075 5 27.2671 19.8707 9.91392 5.00474 -4.27903 -14.5034 
15001 2 25.8934 16.4473 9.39988 31.2905 22.2956 33.6764 
15007 5 27.2951 15.9854 9.7832 -0.581073 -10.5207 -15.9773 
14980 1 29.1857 17.8209 10.1444 -13.1639 -20.7319 15.8363 
15074 5 24.8028 19.6389 10.6176 -5.81215 -5.39714 -19.2853 
15079 5 24.8396 16.1163 10.4638 8.72757 -3.54031 0.0427213 
12533 7 25.4571 18.3754 7.23091 -0.336959 4.41685 6.03281 
17532 1 22.9834 14.1035 10.1761 9.88003 12.009 8.92223 
14998 1 28.6373 13.9834 10.0874 20.3228 24.8937 13.4291 
12492 6 25.1645 17.9196 6.43544 -1.27465 -1.70466 -0.922478 
12532 7 24.2391 17.8074 6.45162 -0.0704583 0.00875184 -0.229707 
17636 7 24.2982 14.6547 7.77674 3.15993 -4.674 -4.39669 
17597 6 27.3956 19.7327 6.47718 -16.3808 -1.07204 0.928159 
17635 7 27.0344 19.9354 7.31032 6.39914 1.23803 -2.30786 
17596 6 23.5563 13.9987 7.66239 -11.4112 -1.60144 4.48956 
14974 6 28.7308 14.0837 7.53935 -5.67279 -10.9129 7.2656 
17634 7 26.9707 18.9124 6.11254 0.288647 0.568794 -0.15044 
15084 7 28.6931 18.2675 6.90767 0.592594 2.76827 -1.50385 
15012 7 28.1952 14.867 7.30744 1.76891 1.80015 -1.72696 
15044 6 29.2899 17.8272 7.55162 -18.325 -15.2721 14.6 
15011 7 29.5706 14.1102 6.99075 5.04473 0.879323 -0.231849 
25461 9 1.63963 21.1191 8.56579 -0.449723 9.00639 -6.02769 
25417 1 4.459 21.7465 10.9217 -16.4603 -19.5122 -18.148 
24923 5 0.754769 27.5218 10.9484 5.79756 1.76352 -2.19715 
25425 3 1.35108 22.98 8.77836 -10.479 -8.45134 18.1935 
24927 5 0.559259 23.61 11.1153 15.6505 -1.52762 7.98097 
25426 5 3.10363 23.8017 10.4009 3.5694 -9.39666 -9.58261 
25420 2 1.64879 23.9265 10.0018 35.0504 98.024 60.0482 
25401 1 4.97038 25.5329 10.7242 10.5907 4.54604 -8.41221 
24924 5 3.18735 27.1766 10.4054 -6.22202 -6.19252 -14.2308 
24922 4 1.38256 25.4386 9.75254 -16.4209 10.3832 -17.1714 
24919 2 1.7823 26.9563 9.95451 0.985207 144.392 60.8878 
24921 3 1.55556 27.7248 8.56562 -3.21165 -0.903705 8.3705 
25462 9 1.60156 23.3783 7.96981 -0.0557572 0.118934 1.81102 
22871 5 6.64021 23.6959 10.9095 4.9329 -4.55292 -4.54978 
25451 9 2.36751 27.8615 8.13061 0.0521825 0.479697 1.54811 
22375 5 6.78156 27.3777 11.2762 2.12553 -3.86564 -3.42355 
20355 9 13.7553 21.1037 8.67011 -2.60388 21.362 -0.712699 
22873 3 7.36095 26.8242 8.94079 -1.621 -2.92361 22.502 
22910 9 7.83453 27.1872 8.16884 0.0143569 0.30248 5.19659 
22881 7 10.5673 22.2037 7.78641 0.17516 0.151374 -0.581513 
22880 7 12.0072 21.7432 8.22322 12.0811 4.46356 -4.40709 
22869 3 7.56442 24.0265 8.5961 -0.847314 -1.29579 0.68443 
22842 6 11.0399 21.8185 8.50693 -11.6513 -8.62283 2.18101 
22909 9 7.42422 24.9915 8.72358 -0.31522 9.4818 -0.569011 
22870 4 7.80675 21.6814 9.76784 -9.70301 13.0556 -14.2698 
22781 1 10.8959 21.6885 11.0129 -26.4952 -19.6973 17.7511 
22868 2 7.76545 27.7412 10.1816 37.7646 98.4036 41.3768 
22867 2 7.78902 23.2324 9.92461 53.2443 189.558 71.0949 
22381 7 12.0152 26.341 8.4485 11.0677 9.11591 -1.59478 
20253 3 13.4682 23.4016 8.82795 -29.3136 -27.7189 6.95471 
22380 7 10.8121 26.2531 7.54966 0.0745647 0.105879 0.0950851 
22342 6 11.2091 25.8188 8.3988 -19.4139 -2.59337 30.2348 
20317 3 13.3219 27.8427 9.08682 -10.2535 -13.0831 -8.43056 
20248 2 13.7696 24.0294 10.2263 8.1241 4.7681 110.593 
20318 4 13.624 25.5447 10.0164 -28.9416 -19.2189 -43.6162 
20315 2 13.7788 27.0543 10.3348 50.7183 -14.9138 83.7764 
22865 1 10.6865 25.3992 10.9226 12.8273 11.3586 30.6413 
22872 5 9.17462 23.6871 10.462 5.31012 -15.5422 -13.8429 
22874 5 9.24947 27.6706 10.5948 6.76255 -9.72812 -10.3537 
20356 9 12.5954 23.6209 8.49206 10.2965 3.87676 -9.85658 
25431 7 14.1509 26.52 7.83751 1.06326 4.72406 6.64569 
20323 5 12.8525 23.6161 11.429 2.0752 -8.06949 0.606003 
25430 7 14.093 24.9955 7.86813 1.65677 4.68094 10.2609 
25395 6 14.4016 25.7329 7.27378 -0.138759 0.09269 -0.155037 
20258 7 15.2294 22.3163 8.12146 1.34441 0.133661 -1.40048 
20223 6 16.0015 21.7513 8.2238 -7.29877 -1.26757 9.01687 
20245 1 16.5342 21.695 10.8038 16.5092 20.3761 40.7191 
17698 4 19.4354 21.7483 9.56107 -12.0204 -3.72033 -28.3421 
20320 5 15.2214 27.4242 10.856 4.4733 -11.0155 -15.0967 
20254 5 15.1801 23.5949 10.561 -15.9175 -11.685 -20.5852 
20329 7 17.2434 26.6466 8.28058 4.01307 3.21786 -3.67003 
20328 7 16.0419 25.8023 7.61998 1.70053 -0.0189112 -0.102855 
17803 9 18.6355 24.4714 8.19816 9.14682 9.20496 -0.677262 
20290 6 16.6573 25.8385 8.42977 -27.1052 -4.70506 8.75848 
17697 3 19.4666 23.9299 8.24968 -7.40031 -15.4006 7.81995 
17701 3 18.7572 27.5768 9.07536 -11.407 -29.575 -3.35859 
17695 2 19.6311 23.298 9.64847 1.64808 5.00025 78.1424 
17696 2 19.6976 27.9701 10.2409 33.0228 100.192 93.0052 
17700 5 20.9899 23.6351 10.1729 -17.3239 -7.5778 -19.2349 
17702 5 21.0953 27.3466 10.1236 7.99742 -13.4458 -21.1987 
17699 5 18.7076 23.7838 10.7613 -3.1586 -4.33111 -2.71298 
20229 1 17.0048 25.6018 10.9426 17.5516 15.2811 -39.5892 
17708 7 20.0702 22.1005 7.0657 -0.243771 1.39576 0.819409 
17670 6 20.1319 21.2549 6.64674 -0.737332 0.856493 -1.29514 
17707 7 20.7868 25.2363 7.6314 4.68153 4.92114 -0.0737376 
17706 7 21.1787 26.5559 8.43819 0.12926 6.53257 6.82835 
17671 6 21.5933 25.7538 7.94146 -0.406568 -4.85106 5.36859 
17804 9 18.1596 28.2261 8.79174 4.31966 -0.354361 -3.07357 
15302 9 22.12 22.0167 7.2663 -10.7739 2.28289 -0.634536 
15082 7 28.9341 21.4367 6.98265 -0.122557 1.91991 -3.0661 
15309 7 26.1711 21.1856 5.56242 -0.051875 0.353874 -0.58147 
15297 7 25.7773 22.9358 5.36905 0.0244123 0.422004 0.0408161 
15076 3 22.8653 21.7306 7.945 5.21189 -10.2475 6.89207 
15105 6 25.4296 21.9972 5.7434 2.52826 2.79662 8.73583 
15067 1 28.5009 21.8246 10.3102 7.63536 14.1728 14.1587 
17603 1 22.8719 21.8054 10.3091 41.9942 31.0296 66.5486 
15070 8 24.6898 21.8654 7.53391 8.68785 22.0036 -5.48347 
15157 7 24.761 24.7113 6.5409 0.0893597 1.43026 -2.22788 
17693 1 22.4585 25.6458 10.3024 35.4792 46.9245 57.7458 
15118 6 24.3516 25.0692 5.80024 0.216653 -0.016779 -0.0829148 
15156 7 23.4675 25.4068 6.08223 0.347895 0.0659287 -0.015177 
12750 9 28.7793 27.0604 8.02173 -18.1454 -1.29542 -3.56224 
15145 3 25.8709 28.1424 8.32624 -25.0372 -10.0599 24.524 
15077 4 25.2347 23.1977 8.50469 -14.8027 -21.7196 -11.4732 
15146 4 25.5466 25.6818 9.29943 -7.68825 17.7761 -15.5493 
15143 2 25.8227 27.2278 9.63665 33.5492 57.8578 42.6966 
15071 2 25.6377 24.1622 9.58877 42.4402 136.721 70.2294 
15078 5 27.0823 23.775 9.8664 3.40532 -1.43577 -12.4005 
15148 5 27.2019 27.5255 10.2775 11.3759 -13.3278 -16.3021 
15051 1 28.9278 25.6837 10.4438 0.415938 13.4097 47.1597 
15147 5 24.7278 27.7419 10.5663 3.53088 -2.09627 -8.71601 
12524 3 29.1596 26.0649 8.01414 -11.2828 -1.30256 9.05915 
15045 6 29.2043 21.7754 7.82857 -18.5087 -11.0325 5.1884 
15251 9 25.5134 27.6474 7.63837 -0.0911887 -0.294564 15.485 
15151 5 24.6677 23.8201 10.7274 -4.99581 -8.15077 -16.222 
25272 7 0.666178 4.81213 16.2133 2.8289 -0.584714 2.03725 
25198 5 4.5419 2.55475 12.6561 -18.0452 -10.7575 -11.547 
25195 5 4.3158 -1.09258 12.7632 -0.0510326 -3.24511 3.09459 
25511 9 -0.156901 0.522354 15.8585 5.7406 5.34234 -0.888761 
22635 1 6.05896 0.692999 12.8525 -19.2805 -2.49611 -1.0233 
25268 5 2.06322 2.89899 12.9931 0.0787082 -10.7458 -22.1612 
25258 1 0.250924 4.4912 12.7638 3.02555 1.34304 6.74861 
25207 1 0.476342 0.786529 13.0733 7.91327 34.9239 21.0964 
25191 2 3.47612 3.03985 13.5769 22.7895 15.9483 60.4182 
25263 4 3.57926 4.53329 13.9916 -29.7018 -8.2105 -30.0965 
25197 4 3.26023 2.0922 14.7531 -17.5065 -36.4083 -15.6683 
25192 4 3.04502 -0.482259 14.848 -7.67694 -14.3117 -6.39528 
25196 3 0.671075 0.939382 15.3481 -0.243401 -14.3922 6.98975 
25190 8 2.45787 0.890834 15.7891 -4.5708 -1.54979 -19.1046 
25240 6 3.34007 0.959063 17.517 3.1262 -4.83994 22.6914 
25519 7 2.85194 0.534461 18.3849 -0.185183 -3.36078 -14.974 
25507 7 3.56401 1.94957 17.9337 0.854856 17.8316 3.45878 
25308 6 0.269269 4.74147 15.348 -10.379 -5.75453 6.08804 
25270 6 1.7217 4.71106 17.854 -41.0281 -3.53218 -13.6366 
22655 1 6.37544 4.67075 12.8239 -8.69672 0.965781 -5.20375 
25194 5 1.89442 -1.62182 13.1754 -0.710896 -13.6884 -20.3194 
25189 2 3.31878 -1.5892 13.8009 44.1313 24.0138 96.3441 
25309 7 2.5425 4.28759 17.5764 -11.3875 -7.42171 -10.6563 
22683 6 6.03122 1.38381 15.4213 -15.8938 -8.37563 10.7043 
22644 3 6.75724 4.56481 15.1938 18.3342 -16.9152 15.5027 
22650 7 5.20865 1.86725 15.495 6.01853 3.46275 -5.12823 
22959 9 6.08949 4.82391 16.0015 9.11554 6.24507 5.35721 
22649 6 4.02254 4.02933 16.8532 -42.6662 -4.64871 -51.2542 
22684 7 3.6203 3.31723 16.3283 -5.58918 -21.5169 -2.86273 
22687 7 5.9539 0.62434 18.9151 5.80894 9.77011 2.15185 
20062 7 6.6779 2.77125 18.4158 0.7581 2.23598 -1.47026 
25310 7 1.91072 5.43395 18.4899 -3.84006 7.25211 5.91924 
22759 7 5.03191 4.45509 18.4316 2.28933 2.5623 -0.719523 
22651 7 6.36967 1.41024 16.3552 0.753924 2.37959 9.90129 
22685 7 3.90346 4.85919 16.3636 -2.27894 6.22509 2.31654 
25312 7 -0.323019 4.60385 18.8276 1.94555 -1.65527 -3.82502 
25472 9 2.08926 3.5237 19.0972 1.51024 19.197 101.636 
25465 9 2.79106 28.702 19.0357 1.36418 4.23184 23.2961 
25201 6 0.361117 0.742859 19.1884 -13.4532 -6.84419 5.71438 
20023 6 7.06154 2.01046 17.9956 2.31173 -5.33847 -30.3958 
20063 7 13.6942 -1.4972 17.9329 2.9911 4.60011 2.90179 
20061 7 7.98232 1.94171 18.4055 9.45513 -4.91423 -18.8142 
20022 6 13.3481 -1.03908 17.1282 -12.1503 -5.16515 12.2033 
20101 7 8.59354 0.61985 17.136 4.88704 1.0567 -1.26891 
22931 9 9.56438 -0.946191 15.7567 -0.802032 5.27637 31.2488 
22643 5 10.3472 2.57234 12.1955 -3.06073 -4.48732 -8.63273 
20083 1 12.0539 4.57824 12.2941 -11.4408 -8.25878 18.4607 
22642 5 7.78438 2.32799 12.6693 -2.44911 -7.82103 -21.2842 
22572 5 10.3915 -1.19034 12.4814 0.247685 -7.96258 -5.06795 
22647 5 8.01803 -1.15376 13.3887 11.8367 -12.5705 -16.8086 
20029 1 12.4935 0.818447 12.5759 -22.5037 -23.6038 -15.0538 
20095 5 13.8672 2.81253 13.0198 2.16759 -12.4852 -16.0534 
22637 2 9.23854 2.21284 13.1776 46.6106 92.9602 77.5356 
22565 2 9.47766 -0.798971 13.6553 37.3871 42.7705 39.5071 
22641 4 9.6135 0.790931 13.697 -23.5237 11.5548 -29.7087 
22640 4 9.10375 3.21619 14.2882 -10.604 -18.3551 -9.70758 
20060 6 12.1921 1.30637 15.1177 -31.9072 0.536815 9.69426 
20025 7 11.331 1.61617 14.9515 0.91616 0.379269 -2.77864 
22638 8 8.59239 4.49855 15.3843 42.1554 33.2374 21.1915 
20024 7 12.0984 0.575818 15.7858 2.48455 4.81433 0.177367 
22688 6 9.6173 4.66374 17.0698 6.56521 1.17629 26.4652 
20130 6 9.38554 0.0490207 17.2397 -0.772563 -5.00725 -13.7989 
20016 5 13.8732 -1.10957 13.0216 5.59332 -14.601 -18.8345 
20100 7 9.12478 -0.539799 17.9007 -2.30952 -3.35813 -0.337851 
22967 7 9.80602 5.75647 17.2112 -2.73827 3.90354 -8.29376 
22571 3 9.89568 -1.43461 14.9544 -24.7491 -23.3834 -4.36134 
20135 7 12.264 -0.119062 18.7565 4.42427 5.08641 1.80409 
20134 7 10.8561 0.430522 18.5958 5.96345 2.16668 1.21675 
22955 7 9.17829 4.43703 17.9663 -1.44469 -0.658641 -3.04068 
20379 9 14.0377 1.91865 15.0927 -2.10996 -2.34224 -27.3219 
20064 7 14.0923 -1.105 16.5129 7.7013 -0.944955 7.3048 
20098 7 11.8304 4.46622 18.4983 1.59982 3.00114 4.79535 
20096 6 11.6288 0.539369 19.1683 -13.0946 -5.41077 -1.20126 
14847 7 27.514 -1.99828 18.6117 3.66252 3.82484 7.90981 
25446 6 -0.196461 20.0161 15.9152 -37.5824 -0.0630651 32.8964 
17544 6 17.1153 4.09458 18.758 -2.52217 -7.1555 22.5608 
20378 9 15.4007 0.0444891 14.8487 3.02887 92.9212 29.5899 
20012 2 15.2359 -1.61828 13.5115 11.6844 -4.23623 80.6652 
17469 5 19.9364 -1.30131 13.4326 -7.16258 -12.4249 -12.2005 
20017 5 16.2815 -1.21496 12.5395 11.171 -0.479516 -2.63436 
20020 5 16.2894 2.4578 12.6312 -12.4284 -5.98009 -10.235 
17477 1 18.4308 4.50707 12.7514 55.345 46.7815 59.031 
17458 1 18.218 0.637135 12.871 54.1859 41.481 21.6107 
17464 5 19.9587 2.61017 13.0923 -9.11773 -14.0665 -15.2861 
20014 3 15.3481 -0.927596 14.9324 -34.0949 -10.0866 41.0796 
20013 2 15.2355 2.86552 13.6686 -5.28329 -1.79717 73.3214 
20089 4 15.4847 4.41259 13.8828 -18.1535 -8.92532 -24.0637 
17460 2 21.2934 2.30374 13.8302 64.8353 101.085 53.059 
17386 2 21.2555 -0.760946 14.0881 54.1911 85.8293 38.9634 
20019 3 14.9977 1.98175 14.9759 -12.9036 -9.99179 -7.08926 
17466 6 17.8266 0.865064 15.512 -6.01431 -16.4366 28.955 
17494 7 16.8963 1.16215 15.8429 10.8559 3.81209 -0.530815 
17493 7 18.3825 1.39776 16.0907 -4.91667 3.7968 -1.96448 
17471 6 19.1155 2.65226 17.0951 -9.88357 -35.1165 -16.9226 
17510 7 19.5642 2.34323 17.8799 4.04842 0.837949 8.17039 
17509 7 19.8792 2.92991 16.5245 -0.88339 2.72611 -6.67273 
17463 4 21.2166 0.803669 14.1626 -9.34481 -2.25645 -19.7066 
17508 6 18.1709 4.73846 15.3091 -10.9413 -6.39689 11.4628 
14959 7 21.7651 -1.02895 18.4398 3.71542 4.28982 2.7014 
14960 7 21.2595 0.373043 18.1367 -1.17134 2.34831 -0.836909 
17391 3 21.5316 -1.53704 15.4259 -17.2731 -23.1126 -5.09122 
17825 9 21.633 -0.891933 16.1121 -0.818095 0.459601 6.40925 
17462 3 21.4067 3.25141 15.0877 -17.0248 -14.5098 19.8837 
14918 6 21.872 -0.282028 17.8366 -23.8893 3.33279 3.16046 
17826 9 21.7007 2.66736 15.8289 -1.99435 2.12732 -20.4645 
17472 7 18.2813 3.97092 15.9275 2.86627 8.59673 0.324371 
17473 7 17.1804 4.70935 15.1604 11.8339 -1.04114 -2.37246 
17827 9 21.4803 5.1264 15.2818 1.44074 -0.826252 -3.17784 
17583 7 17.5677 3.57755 18.0359 6.78371 6.07195 0.785429 
20367 9 15.3043 5.47303 18.9576 0.535517 -0.331848 -67.3495 
17582 7 16.1707 3.68823 18.7821 10.425 2.55624 -7.37529 
17474 7 17.6243 -1.36654 15.6083 5.73266 5.89047 -3.46066 
25347 7 -0.47101 7.71913 16.1811 8.27243 2.24236 -2.64181 
17457 7 16.7515 -0.77754 19.1707 15.1971 3.63207 -2.1578 
14905 7 22.5088 4.97227 18.782 18.9399 12.8529 -3.27346 
12371 7 29.3167 4.60782 16.4787 3.68497 3.43761 -0.425769 
12752 9 29.7031 4.31642 18.6729 -11.3018 1.94439 -2.75582 
15310 7 27.0851 -0.851396 16.9802 -7.06959 -4.51157 -25.4117 
17392 5 22.3788 -1.113 13.0479 11.6375 -1.04199 7.34246 
14833 2 27.436 -1.7351 13.7653 8.84778 -13.9012 68.9651 
14837 5 26.0685 -1.25524 13.3193 -6.14737 -12.6374 -15.0989 