ITEM: TIMESTEP
30000
ITEM: NUMBER OF ATOMS
25520
ITEM: BOX BOUNDS pp pp ff
-3.8959205201285124e-01 6.0088135642019459e+01
-1.9452389155355383e+00 5.9115524189537531e+01
-1.2206056431032383e+01 1.1390111600702880e+02
ITEM: ATOMS id type x y z v_stressx v_stressy v_stressz 
25292 7 5.89857 3.03966 7.5916 -2.45541 -8.51506 -6.33713 
25293 7 5.98077 1.53035 7.7064 -1.89381 -5.93631 -2.00437 
25252 6 5.35811 2.25094 7.51796 -6.35929 -3.22682 0.318338 
25287 5 0.61597 0.755495 10.7564 7.86986 -1.4423 4.16912 
25283 5 2.94291 4.2301 9.842 11.4658 6.85729 -12.9288 
25281 4 1.3887 2.44216 9.07367 -13.7322 2.07057 -17.5449 
25280 4 1.07853 5.00258 8.46007 -12.5375 -8.3905 -6.44817 
25277 2 1.45655 3.94107 9.49571 50.8169 40.4179 79.4674 
25215 5 2.99957 0.588718 9.72621 -14.5178 -9.96805 -12.2067 
25209 2 1.59287 0.935181 9.44522 5.51322 -56.0744 75.2577 
25188 1 4.8243 2.58953 9.97468 5.20446 1.207 15.1416 
25214 3 0.796635 0.0137284 8.44439 -1.9257 -4.37093 1.90607 
25282 5 0.520916 4.37471 10.6565 -15.177 -14.3564 -18.4824 
25458 9 1.40812 -0.435335 7.83607 0.0141549 2.0703 1.68482 
25206 1 4.52732 -1.17961 10.115 34.7504 37.8925 20.8964 
22660 5 6.52822 0.875659 10.2203 -1.17874 -5.80888 -17.1779 
22735 5 6.623 4.87348 10.5536 2.57689 -9.02599 -15.1407 
25505 7 1.83983 5.65447 5.50835 -0.054972 -0.157133 -0.295663 
22662 3 7.17647 4.29529 8.22411 -11.9765 -23.163 -18.3204 
22658 3 7.30314 0.346889 7.89736 -14.8893 -15.0073 -11.2205 
22905 9 7.65252 -0.485879 7.46068 0.0189673 -0.421422 -4.49153 
22906 9 7.50322 4.57024 7.35908 -2.78895 4.29292 9.55077 
20115 7 11.1372 2.292 6.49758 0.441002 -0.0114246 -1.16267 
22656 2 7.7059 0.365729 9.40584 21.7533 73.1283 61.9708 
20116 7 12.1136 2.88755 7.40659 19.576 6.61547 2.66374 
20078 6 11.1398 2.86581 7.23657 -15.8148 -11.5073 1.83605 
20106 3 13.741 4.72985 7.46261 -15.5036 -10.8532 42.0658 
22657 2 7.60419 5.1024 9.41016 53.3835 -16.3408 21.2198 
20036 3 13.619 0.47741 7.57109 -16.2721 -19.3529 16.6354 
20107 4 13.6664 2.6833 8.8298 -17.4439 -13.9177 -34.3001 
20104 2 13.8784 4.18168 8.97251 30.2924 36.1154 95.6266 
20031 2 13.7132 1.1448 8.96008 61.1824 163.319 14.4902 
20108 5 12.6966 4.70757 9.81807 14.9543 11.9875 1.73486 
20112 5 12.4932 0.846951 9.91178 11.1722 -0.265462 5.57103 
22654 1 10.4859 2.78478 9.68506 11.0568 10.2056 11.5544 
22661 5 9.03983 1.11007 9.56315 -7.50272 -6.37054 -16.3696 
22663 5 9.10858 4.7108 9.73761 4.36521 -12.7919 -15.3698 
22563 1 10.886 -1.13469 10.1589 -1.21554 -0.50382 -25.365 
22659 4 7.7627 -1.12896 9.68153 -9.16945 -34.5652 -34.818 
22629 6 11.3751 -1.065 7.76545 -16.763 5.1587 2.50877 
22669 7 11.9249 -0.207968 7.44815 1.29507 5.18558 -1.26976 
20352 9 13.8605 1.22514 6.87465 0.672533 12.4983 14.6653 
20189 7 14.2777 3.18994 6.51456 0.242773 13.4814 8.35822 
20353 9 14.543 5.23857 7.22704 7.7029 13.167 16.856 
20148 6 14.5671 2.45013 5.87332 0.145524 0.0585222 0.100651 
22740 7 11.2703 5.5881 6.8279 3.26765 1.46176 -1.18188 
22738 7 8.76742 5.41578 5.90114 -0.70763 0.684362 -1.37633 
22701 6 7.85394 5.37142 5.69312 0.547148 -0.271022 7.96253 
22739 7 7.886 4.86164 4.87022 -0.0114368 0.0201764 0.00839124 
22670 7 11.9327 -1.89861 7.72342 1.04366 1.60742 -5.27463 
20188 7 15.4435 2.20345 6.22553 0.809344 -0.141458 0.0661118 
20037 5 15.0057 0.565552 9.66218 -0.815583 -6.88431 -13.29 
20118 7 17.8719 2.63796 7.70159 5.65433 -0.366964 -2.90278 
20117 7 17.6995 1.17882 7.44002 3.01678 2.50862 -4.78151 
17799 9 19.455 -0.241526 7.33338 0.271792 6.56224 17.7275 
20077 6 17.1284 2.01775 7.60787 -23.21 2.56452 26.8271 
17484 3 19.536 4.02271 8.03155 -4.10852 -2.46208 -2.41638 
20109 5 15.1822 4.68195 9.53593 -5.75507 -7.26118 -17.615 
17480 3 19.3808 0.510653 7.95906 -16.3344 -31.8324 11.1862 
17478 2 19.7385 0.13463 9.405 32.9288 34.0795 48.9527 
17479 2 19.7269 4.90401 9.32133 45.5919 112.265 62.7858 
17485 5 21.0972 4.45706 9.83859 4.90205 -15.8545 -17.3159 
17483 5 21.125 0.57616 9.92672 5.13588 -9.81933 -13.4033 
17482 5 18.7273 0.612358 10.4453 1.0866 -3.57681 -6.4778 
17560 5 18.5746 4.39351 10.2378 -0.879522 1.83948 -11.9087 
20011 1 16.7883 2.43064 10.1919 50.2741 45.5854 46.3739 
20028 1 16.5417 -1.33752 10.1131 23.4594 17.1718 10.1253 
17481 4 19.613 -1.37684 9.30614 -12.5461 -19.7194 -37.8018 
17800 9 20.2785 3.41394 7.96437 0.276084 -2.92338 -5.47669 
20002 6 16.2002 -1.21507 7.53432 -10.3253 -7.39008 13.8422 
20044 7 15.5857 -0.449442 7.68688 4.24974 8.49434 -3.02467 
20043 7 16.3516 -1.12082 6.60323 0.279933 0.196163 -0.856171 
17377 6 19.8786 -1.6773 6.3322 0.250832 -0.137597 -0.0058041 
17415 7 20.5742 -1.92657 6.98281 2.80202 2.46204 1.9019 
14864 7 23.6314 3.83266 7.75133 5.56429 -4.72693 -1.52078 
14825 6 23.2988 2.969 7.82153 -9.24457 -3.73575 1.49998 
14863 7 24.1611 2.53617 7.90018 3.86569 -1.36566 -0.613021 
17476 1 22.5994 2.5974 10.2549 -65.397 -40.8916 61.0447 
14928 3 25.5679 4.59148 8.20809 -30.924 -49.8852 -46.9414 
15246 9 24.7065 0.00657495 8.04332 7.93579 10.7496 20.1043 
14856 3 25.5405 0.383335 8.16649 -12.5056 -14.7016 10.6752 
14929 4 25.6618 2.47021 9.27814 -17.3394 -34.9601 -33.3464 
14851 2 25.7726 0.935136 9.6021 18.4036 -190.349 73.8847 
14926 2 25.8313 3.99121 9.61155 27.0828 145.392 89.4517 
14857 5 27.172 0.513951 10.0212 -9.55363 -11.7053 -20.9817 
14931 5 27.2703 4.30837 10.1061 -28.2161 -11.4171 -18.3277 
14832 1 28.9014 2.41808 10.4207 15.3189 12.0899 57.4885 
14930 5 24.8007 4.37565 10.6576 12.7584 -4.52382 -13.0731 
14934 5 24.7275 0.511689 10.6576 5.07782 -3.50368 -0.271919 
17384 1 22.8636 -1.16741 10.5973 -1.18145 3.81178 -3.76568 
14848 1 28.7231 -1.43222 10.2624 14.1089 18.7973 -40.0512 
14898 6 29.1786 2.45721 7.88738 -13.6152 -15.1312 6.57215 
15247 9 26.3681 4.66526 7.72718 -1.6202 -1.09639 -15.3162 
14826 6 28.1456 -1.3901 7.71182 1.42754 -3.39813 26.9828 
14861 7 27.5228 -0.59177 7.7367 4.98567 5.84087 -2.26985 
14862 7 28.7608 -1.17174 6.9734 0.154248 0.0371836 -0.0680163 
17565 7 23.8543 5.62398 7.62904 12.4805 3.73444 -1.64174 
17491 7 23.3409 -0.830267 7.25909 0.0925316 0.0696991 -0.45518 
12347 6 29.4782 5.3719 8.00631 -15.118 -7.10161 4.56997 
14939 7 29.2544 3.33895 7.63004 0.440887 -0.933998 -1.24583 
17492 7 24.1978 -1.77871 8.08715 8.11995 2.37639 -6.24662 
17450 6 23.2929 -1.42611 8.02021 -21.2921 -6.75313 19.2164 
25291 7 5.22591 6.53661 7.32751 1.16912 1.64006 -3.22137 
25290 7 3.82687 6.55555 6.86919 -0.705038 1.67447 -4.45942 
25253 6 4.33607 6.71227 7.63615 -9.55378 -11.5176 2.26184 
25517 7 1.84279 7.29014 5.50902 -0.0274048 -0.0530056 -0.552281 
25313 6 1.21101 6.45671 5.78137 6.12167 -5.58732 30.3495 
25362 7 1.19888 10.608 6.31952 -0.0174679 -0.00700218 -0.0214462 
25275 1 4.36027 6.50413 10.1833 3.62852 12.6529 7.36985 
25278 8 0.639374 6.49188 7.63496 52.6281 32.3799 9.28916 
22958 9 3.89074 10.3239 7.2783 -3.49715 1.49298 0.222176 
22732 3 4.70032 10.3548 7.96195 2.49632 -12.6241 13.7067 
25359 5 0.701437 8.49354 11.0939 -9.81746 -10.1259 -16.4467 
25356 5 3.08021 12.146 10.2169 9.93306 0.0427603 -13.1753 
25355 5 0.535314 12.2845 10.6518 -2.68311 -5.60245 -9.23596 
25354 4 1.48185 10.2856 9.54639 -13.3815 14.0182 -26.6455 
25353 3 1.39194 12.6945 8.41831 -15.5423 -9.23667 3.2267 
25351 2 1.63225 11.8296 9.72046 39.3072 48.4941 66.8119 
25286 5 2.93236 8.28049 10.0288 -5.40179 -15.8549 -18.5475 
25285 4 0.892127 7.85648 8.74192 -20.5164 -18.4247 -3.71985 
25279 2 1.49492 8.71367 9.83417 15.484 96.615 74.804 
25259 1 4.86194 10.2149 10.3927 8.36566 9.12419 63.4825 
25327 6 1.60703 9.7444 6.34125 2.37418 1.29099 -0.8345 
25363 7 1.38635 9.50649 7.2315 0.447379 2.77168 1.47361 
22807 5 6.5607 12.2849 10.8694 -15.5142 -14.3227 -17.575 
22730 5 6.65234 8.34528 10.5398 -4.52327 -14.6294 -13.7281 
22726 8 6.48614 10.4372 7.49213 -1.93198 17.7558 -26.3629 
22761 6 7.05704 10.8316 5.66761 1.78225 2.54905 6.87836 
22733 4 6.9844 11.7221 8.61372 -10.7688 -12.7357 -2.70201 
22728 4 7.23016 9.05362 8.29312 -12.7313 -20.1772 -5.76035 
22953 7 7.91026 10.1976 5.3838 -0.0666167 0.0990744 -0.653606 
22965 7 7.33207 11.8331 5.45166 -0.0488427 0.14065 -0.27849 
22741 7 11.5 7.01103 7.05421 2.59322 -0.0459759 -1.53802 
22700 6 10.8104 6.36788 7.23855 -15.9514 -1.9345 18.303 
22636 1 10.9188 6.69179 9.82281 4.25365 9.03599 11.8247 
22729 4 7.48133 6.61374 9.11192 -10.9694 -8.19376 -26.9968 
22668 7 10.5831 8.59932 7.42923 1.86827 4.31487 -3.19329 
22725 2 7.70374 8.13304 9.39568 26.0622 30.6931 95.8837 
22727 2 7.53968 12.6129 9.75953 15.777 132.921 79.528 
22630 6 10.7174 9.56513 7.55044 -8.10238 0.792746 5.35449 
22667 7 11.6785 9.56 7.58776 1.254 0.72069 -1.32006 
20110 3 13.3722 8.00482 7.87861 -10.8575 -1.01473 -4.10485 
20176 4 13.3404 12.979 8.33811 -6.57192 -6.90366 -3.99282 
20177 4 13.5478 10.5013 8.95979 -6.10502 -0.304493 -16.3804 
20173 2 13.7057 11.9908 9.40771 32.8438 -5.52741 75.8917 
20105 2 13.7244 8.93675 9.12343 -2.9636 6.5981 86.399 
20178 5 12.5598 12.2564 10.4158 -7.80092 -12.6029 -23.1767 
20183 5 12.8988 8.51128 10.3587 -3.48472 -10.8863 -7.60048 
22734 5 8.97942 12.4092 10.1072 -12.1878 -12.5318 -17.3795 
22723 1 10.5486 10.4168 9.97488 -2.90224 4.1013 10.114 
22731 5 9.11607 8.33188 9.85191 -15.4796 -24.1791 -22.0318 
20354 9 13.8366 7.1662 8.02076 -1.20714 -12.3901 -25.2235 
17489 7 15.3685 7.53149 7.27379 -6.23607 -2.29284 -3.7599 
17490 7 16.4114 7.08597 6.51817 -0.225856 0.0329031 -0.313176 
17451 6 15.9423 6.78743 7.29642 -18.5515 -17.0464 17.4356 
17555 4 19.5148 6.40419 9.24816 -10.6388 2.47208 -19.2359 
20102 1 16.4765 6.46221 9.86905 11.01 0.0171326 18.9464 
20179 5 15.0791 12.3713 9.86379 2.93286 3.78089 -11.6595 
20111 5 15.0953 8.51182 9.52882 -26.1377 -13.7773 -15.4526 
17802 9 19.4832 11.878 7.51898 -0.111767 -0.100995 0.145188 
17554 3 19.6317 8.68088 7.9737 -1.81135 -5.27826 6.20192 
17801 9 19.3812 9.57046 8.10065 0.580786 12.1215 6.28259 
17558 3 19.3121 11.5602 8.35726 -3.95385 -2.03773 0.128294 
17552 2 19.7279 7.97853 9.40881 24.4065 57.468 64.0899 
17553 2 19.7446 12.5897 9.5152 42.0871 42.6377 70.2492 
17559 5 21.2085 12.1329 9.83297 6.88926 -0.4363 -11.4214 
17557 5 21.1128 8.33065 9.93016 0.934162 -11.4657 -17.0198 
17556 5 18.49 8.44005 10.194 12.5514 -3.88321 -8.17585 
17631 5 18.754 12.2185 10.6826 2.18102 -5.43055 -5.69864 
20084 1 16.8199 10.2664 10.3615 -10.9389 -3.98738 -0.425995 
17566 7 22.7737 6.49197 7.09029 0.0935146 0.0187243 0.0469584 
17525 6 23.2369 6.30614 7.97014 -29.7525 -5.95829 17.0702 
15249 9 26.4199 12.3989 7.50271 0.838371 0.682438 0.26173 
14924 1 28.8784 6.30371 10.2599 25.0226 19.9174 2.87089 
17459 1 22.8153 6.36449 10.4136 -82.9904 -68.8698 43.9367 
17550 1 22.6813 10.1773 10.109 18.7467 17.7423 9.21425 
15248 9 25.0074 7.30471 8.25379 6.67034 8.86549 8.84189 
15002 3 25.5553 12.1132 7.86039 -4.73346 -8.69773 8.80861 
14932 3 25.8534 7.69566 8.37038 -4.55969 -4.1863 1.23802 
15003 4 25.6929 10.0578 9.40228 -8.78565 -5.87271 -23.7988 
15000 2 25.8234 11.5586 9.33827 28.0556 101.362 74.323 
14927 2 25.9265 8.52626 9.67582 38.9425 66.7172 76.4964 
15005 5 27.2586 12.0307 9.65026 -1.43791 -12.3629 -17.6997 
14933 5 27.3368 8.19806 10.2714 9.51231 -14.0124 -18.3083 
15004 5 24.794 12.1885 10.2281 1.01875 3.09921 -14.4268 
14907 1 29.0423 10.186 10.3202 23.5043 18.5782 22.1064 
15008 5 24.7476 8.17989 10.6591 15.8301 -0.0803132 -2.4109 
14899 6 29.4402 9.94521 7.67407 -3.20301 0.0888606 5.42846 
17637 7 24.0129 13.1402 7.48134 1.60606 0.646197 -0.202744 
25427 5 0.471403 16.2254 10.9577 6.29308 -3.30881 -5.61565 
25424 5 3.05777 19.7432 10.2643 -15.0796 -6.28056 -9.88556 
25423 5 0.62854 19.9386 10.7649 4.09734 -4.15993 -10.078 
25422 4 1.53223 17.8586 9.5283 -9.71021 7.18547 -14.3791 
25421 3 1.35286 20.1653 8.46116 -3.22064 -2.59862 -0.146387 
25419 2 1.68921 19.4163 9.80763 -40.9936 139.886 66.5223 
25358 5 3.0433 15.9649 10.3935 6.01781 -0.913998 -11.544 
25352 2 1.62447 16.359 9.9389 56.6992 0.921055 36.8176 
25333 1 4.76049 17.9652 10.8964 -6.98783 12.9061 -42.9779 
25357 3 1.27516 15.4524 8.77037 -12.3376 -16.647 18.5285 
25460 9 1.6173 15.8283 7.87293 0.103463 0.358035 4.20405 
25349 1 4.58657 14.1062 10.6957 6.77173 16.0818 -10.3775 
22803 5 6.49129 16.0975 10.8756 1.00871 -0.93576 3.31894 
22875 5 6.46084 20.071 11.1158 20.5433 8.1014 12.8966 
25459 9 1.48999 13.6574 8.56205 -1.42427 4.28985 -4.07417 
22801 3 7.03055 16.5942 8.55987 -2.11717 -6.79971 4.42421 
2179 7 -0.387305 20.8468 8.22815 14.357 2.21376 -6.26024 
2035 7 -0.373595 13.1837 8.04688 5.35397 0.570339 -3.34329 
22805 3 7.32975 19.3599 8.91011 -8.27878 -8.56416 26.3088 
22908 9 7.54595 19.9046 8.12021 0.00571541 0.259357 6.53989 
22774 6 7.84223 14.1301 6.46407 2.06691 1.33601 1.81845 
22907 9 7.21638 17.5067 8.66763 -0.150167 20.1777 1.51973 
22800 2 7.69826 20.1918 10.1825 70.6687 58.1739 37.2404 
22810 7 9.52718 17.6319 7.67339 -2.04892 0.930906 -1.98226 
22775 6 10.3724 17.5576 8.1234 -18.0001 -8.88164 6.65823 
22811 7 11.0269 17.744 7.42304 6.05596 1.02954 -1.22244 
20249 3 13.6146 20.1923 8.5115 -16.9639 -15.7344 20.2167 
22799 2 7.50164 15.6895 9.76752 0.11387 19.9092 67.3178 
20181 4 13.1648 15.598 8.7498 -9.7007 -31.9655 -11.5029 
20250 4 13.59 17.8559 9.69511 -13.5351 6.8873 -27.3381 
20247 2 13.6446 19.4223 9.89672 1.24789 28.0428 66.7101 
20175 2 13.7411 16.3389 9.95052 44.2569 115.554 89.0221 
20255 5 12.7826 16.0392 11.1348 -2.54438 -11.1443 -16.7919 
20251 5 12.5994 19.887 10.8751 -0.68973 -0.374806 9.26313 
22797 1 10.5866 17.8329 10.6706 3.65841 -1.6442 22.6932 
22804 5 8.85928 16.0465 10.2629 -4.43596 -10.8267 -13.8209 
22806 5 9.15709 19.6726 10.6518 26.4482 -12.4982 -11.2042 
20209 6 12.874 15.0323 5.7533 0.496167 -0.347434 1.53442 
20174 8 12.7095 14.4625 7.54514 27.311 10.7339 -54.3763 
22802 4 7.35344 14.1712 9.46207 -20.6431 9.55291 -28.1433 
22707 1 10.7485 14.2517 10.2767 11.6204 10.563 -25.7585 
20180 3 10.8086 14.0423 7.95232 18.2462 -8.7544 5.11386 
20260 7 13.0324 18.8856 6.99744 0.122229 1.32763 1.26788 
20261 7 12.9162 17.3666 7.33817 -0.57675 10.6073 5.58642 
20401 7 13.4229 15.9899 5.62814 -0.16504 0.310988 -1.28507 
20406 9 10.0189 14.4108 7.4707 -1.28917 2.81126 -2.37217 
20413 7 11.9327 15.1884 5.26927 -0.06888 -0.0250127 -0.439811 
20222 6 12.7014 18.0477 6.67459 -0.729183 0.721367 -0.990095 
22813 7 7.7456 15.0607 6.62462 -0.0732261 -0.052531 0.0727921 
22812 7 7.44152 13.8113 7.30537 0.713853 1.40421 6.59278 
17861 7 18.0327 18.1656 5.18632 -0.0417525 -0.0257562 -0.194924 
17849 7 19.1146 19.332 5.5722 -0.0534826 0.15231 -0.564191 
17657 6 18.7692 18.3451 5.88217 -4.80725 -2.65414 15.1012 
20252 5 14.9691 19.7344 10.5394 -8.04884 -13.4143 -17.9 
20182 5 15.2166 16.0409 10.213 -3.92421 -20.4893 -14.4966 
17622 8 18.5634 18.0799 7.75046 32.1073 27.7435 -15.5026 
17854 9 15.9449 18.6012 8.0719 -0.329561 2.00534 -3.34608 
17628 3 16.7563 18.0742 8.25458 4.14315 -9.93165 9.91522 
17624 4 19.3217 16.6826 8.46567 -7.67651 -11.499 -3.33224 
17629 4 18.9827 19.4332 8.85904 -13.5409 -12.0684 1.70549 
17621 2 19.6951 15.6526 9.54627 45.5911 93.8709 82.0093 
17623 2 19.5501 20.2671 10.0023 52.4033 25.0062 79.4042 
17630 5 21.0316 19.7719 10.2793 12.5901 -2.50498 -16.22 
17627 5 21.1919 15.89 9.96206 1.05808 -17.49 -17.3888 
20155 1 16.8424 17.9752 10.6946 1.47444 10.5309 -32.9355 
17626 5 18.7672 15.8963 10.7355 -8.49821 -8.57863 -12.9882 
20171 1 16.7158 14.1373 10.3208 5.24894 6.49113 -17.0858 
17625 4 19.606 14.0957 9.12525 -5.91287 8.00558 -11.4762 
17564 7 21.4906 17.2833 7.58657 -0.612627 1.54291 -1.40496 
17703 5 18.6795 20.0258 11.2014 -15.2942 -12.4429 -22.104 
17709 7 19.905 20.6273 7.34679 2.85843 4.89823 4.08592 
20259 7 15.568 20.8847 8.4035 12.1428 3.48164 -2.38777 
17526 6 22.4132 17.452 7.70597 -7.49779 -6.47319 18.8272 
17563 7 22.8092 16.6576 7.3521 0.248342 0.341555 -2.03719 
17619 1 22.5682 17.9268 10.3236 10.9375 12.8044 -56.3567 
15250 9 25.4259 16.554 7.3496 3.16065 4.14528 70.261 
15006 3 25.6058 15.7572 7.92658 -17.0068 -12.2688 55.4718 
15072 4 25.3173 20.4252 8.40544 -12.7139 -7.66089 -2.60308 
15073 4 25.9599 17.9542 9.15621 -15.4989 6.06754 -34.726 
15069 2 25.8295 19.4844 9.52152 45.7546 195.545 65.1184 
15075 5 27.2671 19.8707 9.91392 5.14213 -4.15674 -14.2546 
15001 2 25.8934 16.4473 9.39988 30.9848 22.0475 34.4037 
15007 5 27.2951 15.9854 9.7832 -0.535911 -10.4644 -16.2267 
14980 1 29.1857 17.8209 10.1444 -12.9088 -20.7113 14.5431 
15074 5 24.8028 19.6389 10.6176 -5.95777 -5.43898 -19.9036 
15079 5 24.8396 16.1163 10.4638 8.81458 -3.45565 -0.884895 
12533 7 25.4571 18.3754 7.23091 -0.497824 4.27288 5.72711 
17532 1 22.9834 14.1035 10.1761 9.65731 11.7799 9.62304 
14998 1 28.6373 13.9834 10.0874 20.1032 24.6313 13.8322 
12492 6 25.1645 17.9196 6.43544 -1.25681 -1.6891 -0.915808 
12532 7 24.2391 17.8074 6.45162 -0.0726198 0.00639391 -0.232739 
17636 7 24.2982 14.6547 7.77674 3.08666 -4.70941 -4.59223 
17597 6 27.3956 19.7327 6.47718 -16.2237 -0.857662 1.05041 
17635 7 27.0344 19.9354 7.31032 6.27487 1.09285 -2.32749 
17596 6 23.5563 13.9987 7.66239 -11.3735 -1.55672 4.70727 
14974 6 28.7308 14.0837 7.53935 -5.63878 -10.8641 7.3004 
17634 7 26.9707 18.9124 6.11254 0.285845 0.566026 -0.151826 
15084 7 28.6931 18.2675 6.90767 0.584655 2.74446 -1.51264 
15012 7 28.1952 14.867 7.30744 1.75866 1.79061 -1.75391 
15044 6 29.2899 17.8272 7.55162 -18.4253 -15.1006 13.9889 
15011 7 29.5706 14.1102 6.99075 5.04013 0.86126 -0.288916 
25461 9 1.63963 21.1191 8.56579 -0.44444 9.01132 -6.00148 
25417 1 4.459 21.7465 10.9217 -17.3617 -20.0931 -39.5708 
24923 5 0.754769 27.5218 10.9484 6.09905 1.9788 -2.47322 
25425 3 1.35108 22.98 8.77836 -10.5069 -7.82464 18.3199 
24927 5 0.559259 23.61 11.1153 15.7429 -1.61276 7.40038 
25426 5 3.10363 23.8017 10.4009 3.70004 -9.22923 -9.80495 
25420 2 1.64879 23.9265 10.0018 34.986 97.0465 60.8976 
25401 1 4.97038 25.5329 10.7242 10.6865 4.90029 -7.26091 
24924 5 3.18735 27.1766 10.4054 -6.02007 -6.08781 -14.4045 
24922 4 1.38256 25.4386 9.75254 -16.335 10.4967 -17.5502 
24919 2 1.7823 26.9563 9.95451 0.497909 144.461 63.069 
24921 3 1.55556 27.7248 8.56562 -3.20693 -0.92676 8.34972 
25462 9 1.60156 23.3783 7.96981 -0.0564601 0.11387 1.80919 
22871 5 6.64021 23.6959 10.9095 4.86452 -4.64005 -5.1923 
25451 9 2.36751 27.8615 8.13061 0.0502693 0.480662 1.54546 
22375 5 6.78156 27.3777 11.2762 1.96791 -3.93464 -3.6443 
20355 9 13.7553 21.1037 8.67011 -2.83308 21.2283 -1.04789 
22873 3 7.36095 26.8242 8.94079 -1.54675 -2.72256 22.7706 
22910 9 7.83453 27.1872 8.16884 0.0138561 0.296692 5.20109 
22881 7 10.5673 22.2037 7.78641 0.171854 0.143622 -0.60057 
22880 7 12.0072 21.7432 8.22322 12.008 4.35995 -4.72443 
22869 3 7.56442 24.0265 8.5961 -0.84804 -1.26913 0.717404 
22842 6 11.0399 21.8185 8.50693 -11.3691 -8.37272 3.24717 
22909 9 7.42422 24.9915 8.72358 -0.327519 9.43398 -0.679159 
22870 4 7.80675 21.6814 9.76784 -9.71413 13.0439 -14.8285 
22781 1 10.8959 21.6885 11.0129 -25.3443 -19.047 26.3463 
22868 2 7.76545 27.7412 10.1816 36.9562 97.1926 40.8656 
22867 2 7.78902 23.2324 9.92461 53.4101 189.068 72.8791 
22381 7 12.0152 26.341 8.4485 10.9757 9.16093 -1.41863 
20253 3 13.4682 23.4016 8.82795 -28.723 -27.4109 7.17161 
22380 7 10.8121 26.2531 7.54966 0.0735851 0.105246 0.100303 
22342 6 11.2091 25.8188 8.3988 -19.2318 -2.65418 29.8156 
20317 3 13.3219 27.8427 9.08682 -9.96565 -13.0603 -7.91149 
20248 2 13.7696 24.0294 10.2263 6.55489 3.16404 110.335 
20318 4 13.624 25.5447 10.0164 -28.8388 -18.8812 -43.8699 
20315 2 13.7788 27.0543 10.3348 50.7117 -14.6314 84.0578 
22865 1 10.6865 25.3992 10.9226 12.0632 10.9761 11.5494 
22872 5 9.17462 23.6871 10.462 5.53416 -15.3224 -14.1881 
22874 5 9.24947 27.6706 10.5948 6.87722 -9.63536 -10.337 
20356 9 12.5954 23.6209 8.49206 10.2067 3.82395 -9.94678 
25431 7 14.1509 26.52 7.83751 1.03999 4.71885 6.7855 
20323 5 12.8525 23.6161 11.429 2.15397 -7.73984 1.20617 
25430 7 14.093 24.9955 7.86813 1.61558 4.70372 10.5353 
25395 6 14.4016 25.7329 7.27378 -0.136445 0.0932642 -0.15854 
20258 7 15.2294 22.3163 8.12146 1.32066 0.0969896 -1.43996 
20223 6 16.0015 21.7513 8.2238 -7.23887 -1.14443 9.22879 
20245 1 16.5342 21.695 10.8038 16.5157 20.5594 28.3754 
17698 4 19.4354 21.7483 9.56107 -11.803 -3.90126 -29.5449 
20320 5 15.2214 27.4242 10.856 4.6167 -11.1025 -15.0104 
20254 5 15.1801 23.5949 10.561 -15.7958 -11.5832 -20.8533 
20329 7 17.2434 26.6466 8.28058 4.01616 3.17658 -3.59183 
20328 7 16.0419 25.8023 7.61998 1.69727 -0.0238956 -0.0849414 
17803 9 18.6355 24.4714 8.19816 9.10623 9.17989 -0.653007 
20290 6 16.6573 25.8385 8.42977 -27.1816 -4.56802 7.86915 
17697 3 19.4666 23.9299 8.24968 -7.19986 -15.3578 7.33458 
17701 3 18.7572 27.5768 9.07536 -11.2734 -29.254 -3.17229 
17695 2 19.6311 23.298 9.64847 0.479167 4.61318 80.277 
17696 2 19.6976 27.9701 10.2409 33.4288 99.4237 91.4019 
17700 5 20.9899 23.6351 10.1729 -17.2123 -7.44454 -19.4762 
17702 5 21.0953 27.3466 10.1236 7.92638 -13.4102 -20.6235 
17699 5 18.7076 23.7838 10.7613 -2.90032 -3.85918 -0.650648 
20229 1 17.0048 25.6018 10.9426 18.205 14.7678 -17.7558 
17708 7 20.0702 22.1005 7.0657 -0.266614 1.38622 0.649409 
17670 6 20.1319 21.2549 6.64674 -0.717612 0.871399 -1.09299 
17707 7 20.7868 25.2363 7.6314 4.65236 4.894 -0.126185 
17706 7 21.1787 26.5559 8.43819 0.0828506 6.42507 6.64729 
17671 6 21.5933 25.7538 7.94146 -0.188408 -4.55459 5.75957 
17804 9 18.1596 28.2261 8.79174 4.29383 -0.402238 -3.06169 
15302 9 22.12 22.0167 7.2663 -10.8145 2.28127 -0.787638 
15082 7 28.9341 21.4367 6.98265 -0.150727 1.88873 -3.04642 
15309 7 26.1711 21.1856 5.56242 -0.0522516 0.352284 -0.58342 
15297 7 25.7773 22.9358 5.36905 0.0240751 0.421007 0.0375388 
15076 3 22.8653 21.7306 7.945 5.34206 -10.2598 7.11061 
15105 6 25.4296 21.9972 5.7434 2.53988 2.84405 8.80229 
15067 1 28.5009 21.8246 10.3102 6.63176 13.2338 16.3337 
17603 1 22.8719 21.8054 10.3091 41.7754 30.595 62.8026 
15070 8 24.6898 21.8654 7.53391 8.4245 21.9207 -5.65229 
15157 7 24.761 24.7113 6.5409 0.0661945 1.40834 -2.20793 
17693 1 22.4585 25.6458 10.3024 35.1393 46.6588 74.29 
15118 6 24.3516 25.0692 5.80024 0.21817 -0.0143445 -0.0790677 
15156 7 23.4675 25.4068 6.08223 0.347207 0.0650424 -0.0150766 
12750 9 28.7793 27.0604 8.02173 -18.1686 -1.32099 -3.56391 
15145 3 25.8709 28.1424 8.32624 -24.7742 -9.64555 24.6554 
15077 4 25.2347 23.1977 8.50469 -14.7682 -21.8029 -11.9711 
15146 4 25.5466 25.6818 9.29943 -7.56045 18.0102 -15.1579 
15143 2 25.8227 27.2278 9.63665 32.5259 57.7605 40.372 
15071 2 25.6377 24.1622 9.58877 41.5517 136.689 69.0449 
15078 5 27.0823 23.775 9.8664 3.71332 -1.34512 -12.0188 
15148 5 27.2019 27.5255 10.2775 11.5616 -13.3911 -15.7948 
15051 1 28.9278 25.6837 10.4438 0.528161 12.8704 50.2543 
15147 5 24.7278 27.7419 10.5663 4.00702 -1.91854 -7.93981 
12524 3 29.1596 26.0649 8.01414 -11.2367 -1.26845 8.93907 
15045 6 29.2043 21.7754 7.82857 -18.444 -10.9127 4.82058 
15251 9 25.5134 27.6474 7.63837 -0.0909177 -0.337193 15.5105 
15151 5 24.6677 23.8201 10.7274 -4.85915 -7.59381 -15.4867 
25272 7 0.665887 4.33675 16.0252 8.29141 -0.646235 5.80107 
25198 5 4.5419 2.55475 12.6561 -16.0714 -8.64486 -11.4754 
25195 5 4.3158 -1.09258 12.7632 0.0547602 -3.73365 3.90579 
25511 9 -0.0995904 0.787872 16.0933 -1.48764 3.64575 0.770843 
22635 1 6.05896 0.692999 12.8525 -36.22 -13.3999 -1.00828 
25268 5 2.06322 2.89899 12.9931 -0.309581 -9.81278 -23.2118 
25258 1 0.250924 4.4912 12.7638 -0.368292 -2.30526 -0.762827 
25207 1 0.476342 0.786529 13.0733 14.3371 39.0749 21.588 
25191 2 3.47612 3.03985 13.5769 20.7145 136.333 71.4491 
25263 4 3.57926 4.53329 13.9916 -25.1248 8.86139 -26.5013 
25197 4 3.26023 2.0922 14.7531 -5.6043 -7.81728 0.863113 
25192 4 3.04502 -0.482259 14.848 -7.21648 -11.7559 -2.03516 
25196 3 0.664024 1.00425 15.3552 8.85038 -17.2763 10.3823 
25190 8 2.44879 0.859282 15.8139 22.4255 44.2638 35.6466 
25240 6 2.77747 0.872118 17.7324 1.89625 -3.59839 55.876 
25519 7 2.95919 1.85191 18.1737 -1.60852 8.89999 3.80821 
25507 7 3.49487 0.18116 18.1158 2.4375 10.873 3.2354 
22649 6 4.37287 4.9374 17.2715 -10.846 -7.55703 -8.28046 
25308 6 -0.00181648 4.34867 15.2501 -31.3589 -14.5415 6.50519 
22959 9 6.2213 4.66149 16.0192 3.94829 3.46871 11.2474 
25270 6 1.77633 3.99343 17.929 -9.321 -2.85864 -2.20489 
25310 7 2.44761 3.47857 18.3454 -6.27617 -4.586 10.996 
22655 1 6.37544 4.67075 12.8239 -1.66682 6.82814 -5.3842 
25194 5 1.89442 -1.62182 13.1754 -0.199112 -14.2256 -19.1288 
25189 2 3.31878 -1.5892 13.8009 42.8737 109.383 92.8182 
25309 7 0.982994 3.85166 18.5013 10.0047 0.304489 0.478202 
22683 6 6.41089 0.2823 15.4824 -10.8803 -11.0198 23.4905 
22650 7 6.82969 0.491939 16.3688 4.61374 -0.150329 6.96617 
22684 7 3.55095 4.95369 17.7906 9.83931 0.369197 -9.49297 
22644 3 6.85907 4.49534 15.0875 8.97002 -13.7421 17.1942 
22760 7 5.42709 4.44423 18.657 10.7596 0.167117 7.56666 
22651 7 6.50915 -0.641033 15.4767 3.25128 -4.95727 -6.58077 
22685 7 3.99168 5.42961 16.5157 2.70957 5.64522 -5.54559 
22687 7 6.37516 0.598704 18.9632 19.113 1.6343 3.72084 
25236 7 1.02951 0.386275 18.8786 7.95225 4.85118 -5.24082 
25201 6 0.146811 0.674452 19.2105 -21.0992 -13.9761 -6.82465 
17831 9 21.3974 28.0279 15.7433 2.52977 33.3697 37.0513 
20061 7 7.9869 1.9959 18.7302 0.362108 -2.25185 -2.33686 
20023 6 7.75673 1.34319 18.0339 -14.4191 10.1824 -9.3526 
20063 7 13.7939 -0.41558 17.9187 4.38548 2.21686 5.13694 
20022 6 13.2238 -0.870754 17.2588 -21.5768 -5.35904 5.55015 
20062 7 8.54278 0.77029 18.0529 7.27797 -0.610785 0.0222565 
20101 7 11.3155 -0.364917 17.2701 11.1082 -0.039789 -14.2715 
22931 9 9.78519 -0.826307 15.7184 -5.4781 3.82558 -86.294 
22643 5 10.3472 2.57234 12.1955 -2.78089 -4.23134 -7.94252 
20083 1 12.0539 4.57824 12.2941 18.6632 11.1747 21.593 
22642 5 7.78438 2.32799 12.6693 -1.57655 -7.32284 -20.2468 
22572 5 10.3915 -1.19034 12.4814 -3.50651 -8.69723 -9.94937 
22647 5 8.01803 -1.15376 13.3887 6.30628 -14.3044 -17.2933 
20029 1 12.4935 0.818447 12.5759 -5.5917 3.5874 -3.88329 
20095 5 13.8672 2.81253 13.0198 -19.2388 -12.656 -15.2899 
22637 2 9.23854 2.21284 13.1776 47.1933 -77.7191 69.8631 
22565 2 9.47766 -0.798971 13.6553 30.7052 66.7393 51.6729 
22641 4 9.6135 0.790931 13.697 -22.4588 -17.4642 -24.3455 
22640 4 9.10375 3.21619 14.2882 -12.9428 -26.0219 -16.8484 
20060 6 12.33 0.831925 15.226 -5.21336 -7.34364 12.6201 
20025 7 11.4389 0.676956 15.6419 8.21578 1.33521 -0.0681413 
22638 8 8.68819 4.44801 15.3959 12.3198 17.6175 1.94416 
20024 7 12.9356 0.205784 15.6826 3.9665 7.71476 4.70311 
22688 6 9.22725 4.20862 17.2706 -0.465212 7.71651 36.3124 
20130 6 10.3907 -0.202954 17.348 -24.5758 -12.1424 -8.51641 
20016 5 13.8732 -1.10957 13.0216 4.31109 -15.0025 -18.0502 
20100 7 10.0162 -0.788851 18.0514 -1.51524 6.15714 21.1428 
22967 7 8.88484 3.29883 17.741 1.76268 11.0842 -8.56636 
22571 3 9.90953 -1.43494 14.9843 -23.5658 -24.0598 -27.6804 
22955 7 9.00886 5.03285 17.9302 -0.62311 14.0849 2.56767 
20379 9 14.5085 2.24166 15.5318 -4.91262 -2.19119 -42.054 
20064 7 13.8566 -1.43736 16.7863 4.85405 4.11496 2.39567 
20135 7 11.8415 0.173232 18.8051 4.54314 -7.62082 -15.0726 
22759 7 6.4372 5.55627 19.0664 -1.87911 4.74644 -2.11357 
12389 7 29.6158 8.89693 15.6683 11.5992 1.26119 -5.68581 
20099 7 11.1777 4.39277 18.7223 2.65817 3.32331 1.84422 
22895 7 -0.50038 27.0131 18.3718 2.71267 -1.5145 0.790976 
17456 7 16.8986 1.43856 19.1431 13.948 2.68639 2.40399 
12257 7 29.5203 -2.01529 18.967 2.68798 0.316765 -2.55401 
20378 9 15.4007 0.0444891 14.8487 2.42934 60.5271 31.5428 
20012 2 15.2359 -1.61828 13.5115 14.7803 -75.7348 66.3967 
17469 5 19.9364 -1.30131 13.4326 2.90206 -11.1617 -9.79311 
20017 5 16.2815 -1.21496 12.5395 11.0628 -1.42614 -3.31082 
20020 5 16.2894 2.4578 12.6312 -13.0376 -7.46566 -16.8097 
17477 1 18.4308 4.50707 12.7514 43.7904 46.1055 59.5659 
17458 1 18.218 0.637135 12.871 51.9935 39.3816 9.12442 
17464 5 19.9587 2.61017 13.0923 -7.94775 -13.002 -16.174 
20014 3 15.3481 -0.927596 14.9324 -13.3765 -0.71329 26.9018 
20013 2 15.2355 2.86552 13.6686 26.6324 -21.2903 31.1101 
20089 4 15.4847 4.41259 13.8828 -24.3114 -23.2543 -26.3832 
17460 2 21.2934 2.30374 13.8302 60.19 188.01 74.9062 
17386 2 21.2555 -0.760946 14.0881 55.7066 86.1621 45.292 
20019 3 15.2805 2.00509 14.9676 -21.8392 -17.4028 -6.42087 
17466 6 18.052 0.967643 15.3531 -10.3327 -7.55061 0.682146 
17494 7 18.4445 1.67754 15.8939 0.173834 5.64841 0.644751 
17493 7 17.0792 1.17148 15.4898 6.64479 -0.417862 -5.5218 
17471 6 19.1591 3.00806 17.3015 -25.7084 -30.624 -22.0296 
17510 7 19.8933 3.1252 16.6353 5.13847 1.68394 -0.339129 
17509 7 19.6664 2.73662 18.0582 -0.0980131 0.973716 -5.66496 
17463 4 21.2166 0.803669 14.1626 -19.6661 13.0925 -30.0302 
17472 7 18.2714 4.15156 16.1882 6.77446 7.16135 9.06609 
17508 6 17.8641 4.42411 15.307 -9.56373 -15.1972 24.8408 
17473 7 16.8612 4.33984 15.2743 3.93179 2.05069 -12.9709 
14959 7 22.0496 -0.756959 18.4609 2.06224 10.3847 6.56923 
14960 7 21.3827 0.702634 18.4074 2.60696 10.1029 5.53381 
17391 3 21.665 -1.3361 15.4677 -21.1199 -37.1002 9.13297 
17825 9 21.7628 -0.692058 16.1032 4.25854 -7.02287 61.1396 
17462 3 21.3522 3.13174 15.121 -20.9555 -25.7169 -1.69133 
14918 6 21.9657 0.0629751 17.8688 3.6088 26.5962 9.8752 
17583 7 17.9992 4.06787 18.2074 9.52742 10.0365 4.0149 
17544 6 17.668 4.86003 18.7842 -22.981 -6.71137 33.6272 
17827 9 21.2764 5.10851 15.247 -0.929443 18.9366 -12.9939 
17826 9 22.1852 3.0047 15.5723 -1.37971 -0.152793 -15.791 
17582 7 17.9279 5.57535 18.2124 3.01664 -6.70733 -2.29674 
20367 9 15.8487 5.41448 19.2051 24.6973 7.42115 38.5777 
15276 9 28.5025 22.1488 15.3605 31.0352 16.6314 51.0072 
17457 7 16.7007 -0.105097 19.2565 18.0389 8.87986 -1.12241 
12293 7 29.4991 1.56489 15.6197 6.85884 -4.9719 -6.18152 
17392 5 22.3788 -1.113 13.0479 14.6488 1.61149 10.6564 
15272 9 27.094 -1.08294 15.7414 -2.5985 -2.46548 -72.9836 
14833 2 27.436 -1.7351 13.7653 4.64227 -86.0195 86.9011 
14837 5 26.0685 -1.25524 13.3193 -22.7126 -14.5447 -16.3628 
14835 3 27.8155 -1.05442 15.1119 -20.1162 -31.4739 -48.5945 
17465 5 22.4822 2.65522 12.8638 -2.49643 0.723277 0.555065 
14838 5 28.4591 -1.17305 12.8109 -6.62081 -7.34707 -20.4412 