ITEM: TIMESTEP
230000
ITEM: NUMBER OF ATOMS
25517
ITEM: BOX BOUNDS pp pp ff
-3.8959205201285124e-01 6.0088135642019459e+01
-1.9452389155355383e+00 5.9115524189537531e+01
-1.2206056431032383e+01 1.1390111600702880e+02
ITEM: ATOMS id type x y z v_stressx v_stressy v_stressz 
25292 7 5.89857 3.03966 7.5916 -2.47684 -8.47468 -6.22425 
25293 7 5.98077 1.53035 7.7064 -1.91145 -5.88575 -1.90191 
25252 6 5.35811 2.25094 7.51796 -6.31984 -3.26496 0.220679 
25287 5 0.61597 0.755495 10.7564 7.70466 -1.67365 4.6786 
25283 5 2.94291 4.2301 9.842 10.909 6.39738 -13.2028 
25281 4 1.3887 2.44216 9.07367 -12.746 1.90438 -15.5671 
25280 4 1.07853 5.00258 8.46007 -12.91 -8.66209 -6.70675 
25277 2 1.45655 3.94107 9.49571 51.7715 35.5889 79.6096 
25215 5 2.99957 0.588718 9.72621 -14.4299 -9.99035 -11.5124 
25209 2 1.59287 0.935181 9.44522 9.53588 -59.1121 72.1022 
25188 1 4.8243 2.58953 9.97468 5.42811 1.4772 14.2654 
25214 3 0.796635 0.0137284 8.44439 -2.00113 -4.68173 2.80671 
25282 5 0.520916 4.37471 10.6565 -15.2178 -14.4619 -18.0862 
25458 9 1.40812 -0.435335 7.83607 0.0194409 2.12496 1.74391 
25206 1 4.52732 -1.17961 10.115 34.947 38.1116 20.9043 
22660 5 6.52822 0.875659 10.2203 -1.19613 -5.50622 -15.0743 
22735 5 6.623 4.87348 10.5536 2.23582 -9.20999 -15.0906 
25505 7 1.83983 5.65447 5.50835 -0.0569471 -0.164218 -0.297896 
22662 3 7.17647 4.29529 8.22411 -12.2042 -23.1249 -18.151 
22658 3 7.30314 0.346889 7.89736 -15.0082 -15.29 -11.5252 
22905 9 7.65252 -0.485879 7.46068 0.0217629 -0.412887 -4.48859 
22906 9 7.50322 4.57024 7.35908 -2.70024 4.3365 9.74968 
20115 7 11.1372 2.292 6.49758 0.447189 -0.00510963 -1.16206 
22656 2 7.7059 0.365729 9.40584 22.459 73.8932 61.9923 
20116 7 12.1136 2.88755 7.40659 19.671 6.69589 2.54765 
20078 6 11.1398 2.86581 7.23657 -15.9603 -11.6486 1.80618 
20106 3 13.741 4.72985 7.46261 -15.8117 -10.9861 42.4853 
22657 2 7.60419 5.1024 9.41016 54.5589 -15.9411 22.7125 
20036 3 13.619 0.47741 7.57109 -16.5892 -19.5934 16.841 
20107 4 13.6664 2.6833 8.8298 -18.2222 -14.1968 -34.1891 
20104 2 13.8784 4.18168 8.97251 32.2145 36.5857 94.6765 
20031 2 13.7132 1.1448 8.96008 62.9293 163.95 15.3079 
20108 5 12.6966 4.70757 9.81807 14.6087 11.7975 1.57998 
20112 5 12.4932 0.846951 9.91178 10.966 -0.195833 6.61393 
22654 1 10.4859 2.78478 9.68506 11.0153 10.1877 11.0922 
22661 5 9.03983 1.11007 9.56315 -7.62754 -6.52366 -16.3253 
22663 5 9.10858 4.7108 9.73761 4.4161 -12.8191 -15.2749 
22563 1 10.886 -1.13469 10.1589 -0.887418 -0.579063 -22.391 
22659 4 7.7627 -1.12896 9.68153 -9.50283 -34.7497 -34.861 
22629 6 11.3751 -1.065 7.76545 -16.7995 4.97924 2.60888 
22669 7 11.9249 -0.207968 7.44815 1.31295 5.23161 -1.29275 
20352 9 13.8605 1.22514 6.87465 0.723922 12.5496 14.5859 
20189 7 14.2777 3.18994 6.51456 0.290907 13.5243 8.26392 
20353 9 14.543 5.23857 7.22704 7.75695 13.2017 16.7641 
20148 6 14.5671 2.45013 5.87332 0.143983 0.0566278 0.100287 
22740 7 11.2703 5.5881 6.8279 3.2893 1.48143 -1.18199 
22738 7 8.76742 5.41578 5.90114 -0.670419 0.704045 -1.34026 
22701 6 7.85394 5.37142 5.69312 0.428459 -0.33102 7.8551 
22739 7 7.886 4.86164 4.87022 -0.0109143 0.0203529 0.00873792 
22670 7 11.9327 -1.89861 7.72342 1.05787 1.67011 -5.31286 
20188 7 15.4435 2.20345 6.22553 0.815428 -0.13483 0.0611693 
20037 5 15.0057 0.565552 9.66218 -0.933647 -6.83628 -13.1506 
20118 7 17.8719 2.63796 7.70159 5.65729 -0.331601 -2.97502 
20117 7 17.6995 1.17882 7.44002 3.01572 2.5438 -4.78025 
17799 9 19.455 -0.241526 7.33338 0.305689 6.60529 17.8948 
20077 6 17.1284 2.01775 7.60787 -23.2157 2.39616 27.0167 
17484 3 19.536 4.02271 8.03155 -4.18117 -2.55984 -2.25388 
20109 5 15.1822 4.68195 9.53593 -5.86894 -7.40268 -17.4938 
17480 3 19.3808 0.510653 7.95906 -16.3765 -31.8793 11.6233 
17478 2 19.7385 0.13463 9.405 33.3101 34.5447 47.3034 
17479 2 19.7269 4.90401 9.32133 46.9395 113.346 60.3936 
17485 5 21.0972 4.45706 9.83859 4.89981 -15.9554 -16.4532 
17483 5 21.125 0.57616 9.92672 5.15884 -9.99263 -13.0098 
17482 5 18.7273 0.612358 10.4453 0.625764 -3.74048 -5.90287 
17560 5 18.5746 4.39351 10.2378 -1.02266 1.73712 -10.8338 
20011 1 16.7883 2.43064 10.1919 49.6792 46.1374 38.6642 
20028 1 16.5417 -1.33752 10.1131 23.3664 17.0637 3.72907 
17481 4 19.613 -1.37684 9.30614 -12.4877 -19.3471 -37.7045 
17800 9 20.2785 3.41394 7.96437 0.30596 -2.89525 -5.49034 
20002 6 16.2002 -1.21507 7.53432 -10.4769 -7.54503 13.6129 
20044 7 15.5857 -0.449442 7.68688 4.37779 8.57141 -2.8704 
20043 7 16.3516 -1.12082 6.60323 0.283295 0.203061 -0.845746 
17377 6 19.8786 -1.6773 6.3322 0.247294 -0.140799 -0.0154503 
17415 7 20.5742 -1.92657 6.98281 2.86603 2.51327 2.1106 
14864 7 23.6314 3.83266 7.75133 5.59651 -4.69748 -1.42984 
14825 6 23.2988 2.969 7.82153 -9.31965 -3.80516 1.30903 
14863 7 24.1611 2.53617 7.90018 3.87981 -1.32531 -0.554224 
17476 1 22.5994 2.5974 10.2549 -65.6514 -40.6958 59.5451 
14928 3 25.5679 4.59148 8.20809 -31.3762 -50.0427 -46.8769 
15246 9 24.7065 0.00657495 8.04332 8.01069 10.812 20.1913 
14856 3 25.5405 0.383335 8.16649 -12.6431 -14.8708 10.496 
14929 4 25.6618 2.47021 9.27814 -17.9848 -35.3091 -34.2461 
14851 2 25.7726 0.935136 9.6021 20.5764 -189.248 76.1882 
14926 2 25.8313 3.99121 9.61155 28.8139 146.154 88.8453 
14857 5 27.172 0.513951 10.0212 -9.61168 -11.8258 -20.8672 
14931 5 27.2703 4.30837 10.1061 -28.2371 -11.4335 -17.6741 
14832 1 28.9014 2.41808 10.4207 14.4059 12.261 44.7386 
14930 5 24.8007 4.37565 10.6576 12.5071 -4.51913 -12.8536 
14934 5 24.7275 0.511689 10.6576 4.64454 -3.76807 0.140978 
17384 1 22.8636 -1.16741 10.5973 -1.29814 3.82164 -7.02028 
14848 1 28.7231 -1.43222 10.2624 14.4087 19.0766 -25.7489 
14898 6 29.1786 2.45721 7.88738 -13.7764 -15.4274 5.91622 
15247 9 26.3681 4.66526 7.72718 -1.61529 -1.09271 -15.3093 
14826 6 28.1456 -1.3901 7.71182 1.2445 -3.5504 26.2498 
14861 7 27.5228 -0.59177 7.7367 5.01883 5.87231 -2.11796 
14862 7 28.7608 -1.17174 6.9734 0.155528 0.0385714 -0.062556 
17565 7 23.8543 5.62398 7.62904 12.5289 3.74343 -1.58784 
17491 7 23.3409 -0.830267 7.25909 0.0971668 0.0737498 -0.439653 
12347 6 29.4782 5.3719 8.00631 -15.3148 -7.1198 4.28626 
14939 7 29.2544 3.33895 7.63004 0.455572 -0.919924 -1.19659 
17492 7 24.1978 -1.77871 8.08715 8.19336 2.48104 -6.16324 
17450 6 23.2929 -1.42611 8.02021 -21.553 -6.99152 18.8252 
25291 7 5.22591 6.53661 7.32751 1.18157 1.64931 -3.15552 
25290 7 3.82687 6.55555 6.86919 -0.694202 1.65224 -4.40765 
25253 6 4.33607 6.71227 7.63615 -9.61847 -11.5844 2.12581 
25517 7 1.84279 7.29014 5.50902 -0.025665 -0.0574153 -0.553558 
25313 6 1.21101 6.45671 5.78137 6.04457 -5.17709 30.3088 
25362 7 1.19888 10.608 6.31952 -0.0138262 0.000517949 -0.0263072 
25275 1 4.36027 6.50413 10.1833 4.07518 13.0029 3.30412 
25278 8 0.639374 6.49188 7.63496 52.9274 31.7887 9.7589 
22958 9 3.89074 10.3239 7.2783 -3.45516 1.52203 0.270079 
22732 3 4.70032 10.3548 7.96195 2.33951 -12.6929 13.5121 
25359 5 0.701437 8.49354 11.0939 -10.0645 -10.6234 -16.9566 
25356 5 3.08021 12.146 10.2169 9.82693 0.128946 -12.9532 
25355 5 0.535314 12.2845 10.6518 -2.56019 -5.15606 -7.46856 
25354 4 1.48185 10.2856 9.54639 -13.8797 13.7449 -27.4581 
25353 3 1.39194 12.6945 8.41831 -12.5771 -8.29526 2.85485 
25351 2 1.63225 11.8296 9.72046 40.3206 47.831 68.0442 
25286 5 2.93236 8.28049 10.0288 -5.54302 -16.1755 -18.9967 
25285 4 0.892127 7.85648 8.74192 -20.6616 -18.5877 -4.63348 
25279 2 1.49492 8.71367 9.83417 16.756 99.1952 77.4128 
25259 1 4.86194 10.2149 10.3927 7.33527 9.37476 46.8191 
25327 6 1.60703 9.7444 6.34125 2.31039 1.23787 -0.719339 
25363 7 1.38635 9.50649 7.2315 0.497065 2.83552 1.34621 
22807 5 6.5607 12.2849 10.8694 -15.4604 -14.4354 -16.7974 
22730 5 6.65234 8.34528 10.5398 -4.64615 -14.7772 -13.4847 
22726 8 6.48614 10.4372 7.49213 -1.47814 17.9891 -25.7848 
22761 6 7.05704 10.8316 5.66761 1.74022 2.49486 6.83692 
22733 4 6.9844 11.7221 8.61372 -10.9763 -12.6615 -2.84571 
22728 4 7.23016 9.05362 8.29312 -12.9419 -20.3422 -5.82186 
22953 7 7.91026 10.1976 5.3838 -0.0663953 0.100453 -0.652227 
22965 7 7.33207 11.8331 5.45166 -0.0479096 0.141946 -0.277102 
22741 7 11.5 7.01103 7.05421 2.6083 -0.0283246 -1.54429 
22700 6 10.8104 6.36788 7.23855 -16.0992 -2.13619 18.3693 
22636 1 10.9188 6.69179 9.82281 4.33457 9.45258 11.48 
22729 4 7.48133 6.61374 9.11192 -11.3118 -8.47692 -27.6215 
22668 7 10.5831 8.59932 7.42923 1.89957 4.37721 -3.13689 
22725 2 7.70374 8.13304 9.39568 27.5927 32.4198 98.2813 
22727 2 7.53968 12.6129 9.75953 17.5152 133.183 80.0959 
22630 6 10.7174 9.56513 7.55044 -8.168 0.675795 5.23143 
22667 7 11.6785 9.56 7.58776 1.27074 0.742038 -1.2827 
20110 3 13.3722 8.00482 7.87861 -11.0226 -1.16125 -3.89477 
20176 4 13.3404 12.979 8.33811 -6.61692 -6.97515 -4.23803 
20177 4 13.5478 10.5013 8.95979 -6.31301 -0.190161 -16.5985 
20173 2 13.7057 11.9908 9.40771 33.8129 -4.81106 78.0411 
20105 2 13.7244 8.93675 9.12343 -1.25632 6.8837 87.3138 
20178 5 12.5598 12.2564 10.4158 -7.86314 -12.5092 -22.1882 
20183 5 12.8988 8.51128 10.3587 -3.62888 -11.0076 -7.46977 
22734 5 8.97942 12.4092 10.1072 -12.4731 -12.5897 -17.206 
22723 1 10.5486 10.4168 9.97488 -2.84398 3.97362 9.3152 
22731 5 9.11607 8.33188 9.85191 -15.7605 -24.5077 -22.1324 
20354 9 13.8366 7.1662 8.02076 -1.0781 -12.2879 -25.3036 
17489 7 15.3685 7.53149 7.27379 -6.20421 -2.27035 -3.75976 
17490 7 16.4114 7.08597 6.51817 -0.225163 0.0336289 -0.312703 
17451 6 15.9423 6.78743 7.29642 -18.764 -17.2512 17.3512 
17555 4 19.5148 6.40419 9.24816 -10.8508 2.44373 -18.4655 
20102 1 16.4765 6.46221 9.86905 10.8732 0.308821 18.7847 
20179 5 15.0791 12.3713 9.86379 2.72557 3.74414 -11.5058 
20111 5 15.0953 8.51182 9.52882 -26.3221 -13.9024 -15.0219 
17802 9 19.4832 11.878 7.51898 -0.107384 -0.0978744 0.172882 
17554 3 19.6317 8.68088 7.9737 -1.87503 -5.32667 6.08553 
17801 9 19.3812 9.57046 8.10065 0.636835 12.177 6.44021 
17558 3 19.3121 11.5602 8.35726 -4.21746 -2.05746 -0.997648 
17552 2 19.7279 7.97853 9.40881 25.4884 58.3323 60.0806 
17553 2 19.7446 12.5897 9.5152 42.2788 42.9561 66.9251 
17559 5 21.2085 12.1329 9.83297 6.89534 -0.466764 -10.6033 
17557 5 21.1128 8.33065 9.93016 1.00592 -11.6627 -15.4416 
17556 5 18.49 8.44005 10.194 12.5759 -3.94095 -7.04595 
17631 5 18.754 12.2185 10.6826 1.71704 -5.40146 -1.06389 
20084 1 16.8199 10.2664 10.3615 -11.6231 -4.78279 -0.956777 
17566 7 22.7737 6.49197 7.09029 0.0943212 0.0183682 0.0512844 
17525 6 23.2369 6.30614 7.97014 -30.049 -5.95669 17.1251 
15249 9 26.4199 12.3989 7.50271 0.842165 0.686452 0.254055 
14924 1 28.8784 6.30371 10.2599 24.9383 20.2032 10.1297 
17459 1 22.8153 6.36449 10.4136 -83.07 -68.1241 40.9108 
17550 1 22.6813 10.1773 10.109 18.8642 17.6848 8.54128 
15248 9 25.0074 7.30471 8.25379 6.71952 8.86226 8.67762 
15002 3 25.5553 12.1132 7.86039 -4.84359 -8.80469 8.82071 
14932 3 25.8534 7.69566 8.37038 -4.63594 -4.19443 1.41244 
15003 4 25.6929 10.0578 9.40228 -9.14244 -5.92059 -23.2876 
15000 2 25.8234 11.5586 9.33827 30.1946 102.88 72.675 
14927 2 25.9265 8.52626 9.67582 40.0216 66.8626 73.5465 
15005 5 27.2586 12.0307 9.65026 -1.74385 -12.6956 -16.9696 
14933 5 27.3368 8.19806 10.2714 9.63385 -13.8842 -17.2461 
15004 5 24.794 12.1885 10.2281 1.04487 3.39498 -11.9165 
14907 1 29.0423 10.186 10.3202 23.4637 18.379 22.2785 
15008 5 24.7476 8.17989 10.6591 15.5495 -0.271162 -1.96711 
14899 6 29.4402 9.94521 7.67407 -3.23923 0.0370414 5.33667 
17637 7 24.0129 13.1402 7.48134 1.6116 0.648098 -0.177574 
25427 5 0.471403 16.2254 10.9577 6.18565 -3.4254 -5.30203 
25424 5 3.05777 19.7432 10.2643 -15.1351 -6.38057 -9.83045 
25423 5 0.62854 19.9386 10.7649 4.10428 -4.37272 -10.3165 
25422 4 1.53223 17.8586 9.5283 -9.73907 7.07279 -14.2181 
25421 3 1.35286 20.1653 8.46116 -3.24913 -2.58945 -0.09037 
25419 2 1.68921 19.4163 9.80763 -40.8816 139.869 65.4241 
25358 5 3.0433 15.9649 10.3935 5.99813 -1.14097 -11.3668 
25352 2 1.62447 16.359 9.9389 56.839 1.373 35.656 
25333 1 4.76049 17.9652 10.8964 -5.2254 13.2973 -14.0347 
25357 3 1.27516 15.4524 8.77037 -12.0538 -17.0991 19.0858 
25460 9 1.6173 15.8283 7.87293 0.0979733 0.367334 4.20418 
25349 1 4.58657 14.1062 10.6957 6.8556 16.3469 -11.914 
22803 5 6.49129 16.0975 10.8756 1.50531 -0.649043 -0.611038 
22875 5 6.46084 20.071 11.1158 20.331 8.10102 13.8577 
25459 9 1.48999 13.6574 8.56205 -1.72226 4.65095 -3.91917 
22801 3 7.03055 16.5942 8.55987 -2.26377 -6.92665 4.17333 
2179 7 -0.387305 20.8468 8.22815 14.4263 2.23522 -6.39973 
22805 3 7.32975 19.3599 8.91011 -8.5622 -8.84306 25.6626 
22908 9 7.54595 19.9046 8.12021 0.0133353 0.261329 6.54549 
22774 6 7.84223 14.1301 6.46407 2.00726 1.27006 1.88688 
22907 9 7.21638 17.5067 8.66763 -0.052388 20.2674 1.79212 
22800 2 7.69826 20.1918 10.1825 71.2371 58.9245 37.3781 
22810 7 9.52718 17.6319 7.67339 -2.03515 0.949937 -2.02392 
22775 6 10.3724 17.5576 8.1234 -17.991 -9.03915 6.81326 
22811 7 11.0269 17.744 7.42304 6.07085 1.05566 -1.26498 
20249 3 13.6146 20.1923 8.5115 -17.5351 -15.9967 19.8558 
22799 2 7.50164 15.6895 9.76752 1.54258 21.3836 72.3561 
20181 4 13.1648 15.598 8.7498 -9.67175 -32.1021 -11.8403 
20250 4 13.59 17.8559 9.69511 -13.8346 6.64112 -28.0004 
20247 2 13.6446 19.4223 9.89672 2.51164 29.2396 68.1939 
20175 2 13.7411 16.3389 9.95052 44.7919 117.1 90.116 
20255 5 12.7826 16.0392 11.1348 -2.97221 -11.4549 -16.2069 
20251 5 12.5994 19.887 10.8751 -0.818102 -0.417797 10.3803 
22797 1 10.5866 17.8329 10.6706 3.45779 -1.57909 15.5308 
22804 5 8.85928 16.0465 10.2629 -4.54451 -11.0972 -14.5028 
22806 5 9.15709 19.6726 10.6518 26.3093 -12.6507 -11.596 
20209 6 12.874 15.0323 5.7533 0.478581 -0.362282 1.53031 
20174 8 12.7095 14.4625 7.54514 27.3277 10.9998 -53.9367 
22802 4 7.35344 14.1712 9.46207 -20.9899 9.38978 -29.2789 
22707 1 10.7485 14.2517 10.2767 11.4108 10.688 -41.5762 
20180 3 10.8086 14.0423 7.95232 18.2336 -8.90676 5.14447 
20260 7 13.0324 18.8856 6.99744 0.132692 1.33247 1.25983 
20261 7 12.9162 17.3666 7.33817 -0.544342 10.6421 5.57517 
20401 7 13.4229 15.9899 5.62814 -0.161276 0.311785 -1.28618 
20406 9 10.0189 14.4108 7.4707 -1.27133 2.85877 -2.46011 
20413 7 11.9327 15.1884 5.26927 -0.068447 -0.0247171 -0.439324 
20222 6 12.7014 18.0477 6.67459 -0.746976 0.708183 -0.969468 
22813 7 7.7456 15.0607 6.62462 -0.0697393 -0.0491912 0.0624442 
22812 7 7.44152 13.8113 7.30537 0.754243 1.44107 6.48296 
17861 7 18.0327 18.1656 5.18632 -0.0414826 -0.0258246 -0.195339 
17849 7 19.1146 19.332 5.5722 -0.0523118 0.152442 -0.563085 
17657 6 18.7692 18.3451 5.88217 -4.8761 -2.65803 15.0596 
20252 5 14.9691 19.7344 10.5394 -8.38504 -13.6646 -17.9978 
20182 5 15.2166 16.0409 10.213 -3.97825 -20.7179 -14.4737 
17622 8 18.5634 18.0799 7.75046 32.1884 27.9152 -14.5608 
17854 9 15.9449 18.6012 8.0719 -0.273769 2.02405 -3.20455 
17628 3 16.7563 18.0742 8.25458 4.04235 -10.005 9.56261 
17624 4 19.3217 16.6826 8.46567 -7.8087 -11.586 -3.57241 
17629 4 18.9827 19.4332 8.85904 -13.7629 -12.2671 1.36233 
17621 2 19.6951 15.6526 9.54627 46.8594 95.7302 82.0034 
17623 2 19.5501 20.2671 10.0023 53.8827 25.3753 73.7782 
17630 5 21.0316 19.7719 10.2793 12.432 -2.44672 -15.1118 
17627 5 21.1919 15.89 9.96206 0.980974 -17.9316 -16.5157 
20155 1 16.8424 17.9752 10.6946 -0.670617 10.9248 -77.1092 
17626 5 18.7672 15.8963 10.7355 -8.90378 -8.98427 -12.0196 
20171 1 16.7158 14.1373 10.3208 4.93385 6.1533 2.74229 
17625 4 19.606 14.0957 9.12525 -6.14325 7.87022 -11.7846 
17564 7 21.4906 17.2833 7.58657 -0.57546 1.57644 -1.21508 
17703 5 18.6795 20.0258 11.2014 -15.2787 -12.2548 -21.003 
17709 7 19.905 20.6273 7.34679 2.9102 4.96381 4.39126 
20259 7 15.568 20.8847 8.4035 12.2222 3.50529 -2.38947 
17526 6 22.4132 17.452 7.70597 -7.67526 -6.74425 17.8149 
17563 7 22.8092 16.6576 7.3521 0.27043 0.359664 -1.87367 
17619 1 22.5682 17.9268 10.3236 10.848 12.6158 -50.8392 
15250 9 25.4259 16.554 7.3496 3.227 4.20703 70.4734 
15006 3 25.6058 15.7572 7.92658 -17.2946 -12.3157 55.2455 
15072 4 25.3173 20.4252 8.40544 -13.0368 -7.90774 -2.8124 
15073 4 25.9599 17.9542 9.15621 -16.0091 6.00894 -35.326 
15069 2 25.8295 19.4844 9.52152 47.5754 196.217 67.0184 
15075 5 27.2671 19.8707 9.91392 4.91656 -4.26083 -14.4603 
15001 2 25.8934 16.4473 9.39988 32.144 22.7025 34.3368 
15007 5 27.2951 15.9854 9.7832 -0.652355 -10.5837 -16.0986 
14980 1 29.1857 17.8209 10.1444 -12.6112 -20.6261 14.4286 
15074 5 24.8028 19.6389 10.6176 -5.9508 -5.17492 -18.9404 
15079 5 24.8396 16.1163 10.4638 8.74033 -3.43267 1.01562 
12533 7 25.4571 18.3754 7.23091 -0.395485 4.48249 6.11269 
17532 1 22.9834 14.1035 10.1761 9.64265 12.2798 8.30086 
14998 1 28.6373 13.9834 10.0874 20.1575 24.9719 13.6499 
12492 6 25.1645 17.9196 6.43544 -1.27546 -1.72036 -0.953193 
12532 7 24.2391 17.8074 6.45162 -0.0693051 0.0118683 -0.218385 
17636 7 24.2982 14.6547 7.77674 3.15304 -4.6839 -4.44398 
17597 6 27.3956 19.7327 6.47718 -16.3406 -1.08109 0.980117 
17635 7 27.0344 19.9354 7.31032 6.34065 1.20859 -2.29863 
17596 6 23.5563 13.9987 7.66239 -11.399 -1.57764 4.46303 
14974 6 28.7308 14.0837 7.53935 -5.76137 -10.909 7.23697 
17634 7 26.9707 18.9124 6.11254 0.288001 0.570213 -0.153995 
15084 7 28.6931 18.2675 6.90767 0.592627 2.77623 -1.52671 
15012 7 28.1952 14.867 7.30744 1.77076 1.79855 -1.74124 
15044 6 29.2899 17.8272 7.55162 -18.5253 -15.4793 13.8426 
15011 7 29.5706 14.1102 6.99075 5.06014 0.877043 -0.252446 
25461 9 1.63963 21.1191 8.56579 -0.403051 9.0308 -6.00573 
25417 1 4.459 21.7465 10.9217 -17.0356 -20.129 -17.6601 
24923 5 0.754769 27.5218 10.9484 6.18954 1.90273 -1.89707 
25425 3 1.35108 22.98 8.77836 -10.7608 -8.4057 18.0114 
24927 5 0.559259 23.61 11.1153 15.6762 -1.58701 8.27326 
25426 5 3.10363 23.8017 10.4009 3.53114 -9.48736 -9.37371 
25420 2 1.64879 23.9265 10.0018 36.0411 98.3407 59.3132 
25401 1 4.97038 25.5329 10.7242 8.42753 5.17722 -34.5576 
24924 5 3.18735 27.1766 10.4054 -6.04642 -5.9847 -13.5133 
24922 4 1.38256 25.4386 9.75254 -16.466 10.2563 -17.2032 
24919 2 1.7823 26.9563 9.95451 0.89054 144.672 60.5106 
24921 3 1.55556 27.7248 8.56562 -3.27542 -0.917059 8.31821 
25462 9 1.60156 23.3783 7.96981 -0.0537547 0.118944 1.81442 
22871 5 6.64021 23.6959 10.9095 4.87974 -4.76913 -4.68627 
25451 9 2.36751 27.8615 8.13061 0.0532143 0.481256 1.55314 
22375 5 6.78156 27.3777 11.2762 1.94904 -3.97618 -4.00656 
20355 9 13.7553 21.1037 8.67011 -2.60033 21.3147 -0.946228 
22873 3 7.36095 26.8242 8.94079 -1.93715 -2.89157 22.6308 
22910 9 7.83453 27.1872 8.16884 0.021343 0.302085 5.20519 
22881 7 10.5673 22.2037 7.78641 0.174245 0.149915 -0.593593 
22880 7 12.0072 21.7432 8.22322 12.0563 4.42886 -4.62975 
22869 3 7.56442 24.0265 8.5961 -0.874899 -1.29294 0.703257 
22842 6 11.0399 21.8185 8.50693 -11.5052 -8.6016 2.9651 
22909 9 7.42422 24.9915 8.72358 -0.265662 9.50243 -0.609467 
22870 4 7.80675 21.6814 9.76784 -9.85388 13.1894 -14.4312 
22781 1 10.8959 21.6885 11.0129 -26.5841 -19.3017 14.7559 
22868 2 7.76545 27.7412 10.1816 38.7745 97.7995 39.7454 
22867 2 7.78902 23.2324 9.92461 54.2241 189.418 71.3146 
22381 7 12.0152 26.341 8.4485 11.0416 9.22417 -1.45689 
20253 3 13.4682 23.4016 8.82795 -29.4156 -27.797 7.00901 
22380 7 10.8121 26.2531 7.54966 0.0739728 0.10616 0.101069 
22342 6 11.2091 25.8188 8.3988 -19.3241 -2.80691 29.7898 
20317 3 13.3219 27.8427 9.08682 -10.1602 -13.1088 -7.78888 
20248 2 13.7696 24.0294 10.2263 7.84004 3.38998 107.834 
20318 4 13.624 25.5447 10.0164 -29.1982 -18.931 -42.8955 
20315 2 13.7788 27.0543 10.3348 51.2778 -14.1655 80.6268 
22865 1 10.6865 25.3992 10.9226 12.8029 11.2663 27.9547 
22872 5 9.17462 23.6871 10.462 5.44163 -15.3907 -13.6087 
22874 5 9.24947 27.6706 10.5948 6.82687 -9.72591 -9.8048 
20356 9 12.5954 23.6209 8.49206 10.2782 3.89701 -9.90093 
25431 7 14.1509 26.52 7.83751 1.08401 4.74723 6.84481 
20323 5 12.8525 23.6161 11.429 2.0227 -7.89025 0.980124 
25430 7 14.093 24.9955 7.86813 1.7115 4.7809 10.6821 
25395 6 14.4016 25.7329 7.27378 -0.140756 0.0902245 -0.17131 
20258 7 15.2294 22.3163 8.12146 1.36676 0.121748 -1.38321 
20223 6 16.0015 21.7513 8.2238 -7.32982 -1.19299 9.09147 
20245 1 16.5342 21.695 10.8038 16.4351 20.7093 28.4625 
17698 4 19.4354 21.7483 9.56107 -12.0544 -3.6647 -28.1831 
20320 5 15.2214 27.4242 10.856 4.68623 -11.2332 -14.4655 
20254 5 15.1801 23.5949 10.561 -15.7448 -11.5295 -20.2173 
20329 7 17.2434 26.6466 8.28058 4.0359 3.2162 -3.5768 
20328 7 16.0419 25.8023 7.61998 1.70975 -0.010282 -0.0555367 
17803 9 18.6355 24.4714 8.19816 9.12718 9.22853 -0.626446 
20290 6 16.6573 25.8385 8.42977 -27.3662 -4.89175 7.73722 
17697 3 19.4666 23.9299 8.24968 -7.2793 -15.511 7.63803 
17701 3 18.7572 27.5768 9.07536 -11.5736 -29.4861 -3.8306 
17695 2 19.6311 23.298 9.64847 1.97568 5.66179 78.3085 
17696 2 19.6976 27.9701 10.2409 34.4309 100.422 92.3215 
17700 5 20.9899 23.6351 10.1729 -17.4166 -7.75156 -18.9697 
17702 5 21.0953 27.3466 10.1236 7.81975 -13.4532 -20.7408 
17699 5 18.7076 23.7838 10.7613 -3.35318 -4.38643 -1.67937 
20229 1 17.0048 25.6018 10.9426 16.4991 14.8194 -60.0982 
17708 7 20.0702 22.1005 7.0657 -0.24314 1.40564 0.817195 
17670 6 20.1319 21.2549 6.64674 -0.748615 0.845629 -1.31843 
17707 7 20.7868 25.2363 7.6314 4.66872 4.91983 -0.067344 
17706 7 21.1787 26.5559 8.43819 0.130107 6.49807 6.89724 
17671 6 21.5933 25.7538 7.94146 -0.360685 -4.79976 5.11 
17804 9 18.1596 28.2261 8.79174 4.343 -0.36837 -2.96617 
15302 9 22.12 22.0167 7.2663 -10.7548 2.28711 -0.644085 
15082 7 28.9341 21.4367 6.98265 -0.116175 1.90777 -3.02611 
15309 7 26.1711 21.1856 5.56242 -0.0513583 0.35392 -0.580785 
15297 7 25.7773 22.9358 5.36905 0.0248031 0.421869 0.040592 
15076 3 22.8653 21.7306 7.945 5.06508 -10.3163 6.65667 
15105 6 25.4296 21.9972 5.7434 2.51541 2.80311 8.71833 
15067 1 28.5009 21.8246 10.3102 6.80205 13.4273 16.6572 
17603 1 22.8719 21.8054 10.3091 42.1297 31.5375 68.2104 
15070 8 24.6898 21.8654 7.53391 8.73498 21.9266 -5.37204 
15157 7 24.761 24.7113 6.5409 0.0896525 1.43878 -2.22699 
17693 1 22.4585 25.6458 10.3024 35.4224 46.7511 66.6408 
15118 6 24.3516 25.0692 5.80024 0.216367 -0.017643 -0.0802845 
15156 7 23.4675 25.4068 6.08223 0.347826 0.0663828 -0.0157665 
12750 9 28.7793 27.0604 8.02173 -18.1359 -1.27238 -3.39522 
15145 3 25.8709 28.1424 8.32624 -25.1548 -10.0779 23.2318 
15077 4 25.2347 23.1977 8.50469 -14.8533 -21.787 -11.6727 
15146 4 25.5466 25.6818 9.29943 -7.90233 17.9058 -15.9817 
15143 2 25.8227 27.2278 9.63665 34.1075 57.7267 42.1486 
15071 2 25.6377 24.1622 9.58877 43.2511 137.657 69.0334 
15078 5 27.0823 23.775 9.8664 3.58692 -1.60956 -11.7247 
15148 5 27.2019 27.5255 10.2775 11.391 -13.2013 -15.337 
15051 1 28.9278 25.6837 10.4438 0.509109 13.379 45.91 
15147 5 24.7278 27.7419 10.5663 3.63909 -1.86737 -7.25925 
12524 3 29.1596 26.0649 8.01414 -11.2869 -1.35301 8.8472 
15045 6 29.2043 21.7754 7.82857 -18.5491 -10.9733 5.2535 
15251 9 25.5134 27.6474 7.63837 -0.0780657 -0.290408 15.6116 
15151 5 24.6677 23.8201 10.7274 -5.11447 -8.33386 -15.7889 
25272 7 0.523209 4.64823 16.1619 2.69923 -1.30745 10.0122 
25198 5 4.5419 2.55475 12.6561 -17.8678 -10.5173 -10.7885 
25195 5 4.3158 -1.09258 12.7632 0.35539 -2.57296 3.33026 
25511 9 -0.256491 0.920475 16.059 -6.97319 5.09516 -2.17844 
22635 1 6.05896 0.692999 12.8525 -31.5753 -11.1441 -12.3404 
25268 5 2.06322 2.89899 12.9931 0.0342385 -9.9781 -21.8442 
25258 1 0.250924 4.4912 12.7638 9.1054 3.32591 1.2268 
25207 1 0.476342 0.786529 13.0733 16.2752 42.1617 22.0528 
25191 2 3.47612 3.03985 13.5769 18.837 89.7909 57.4038 
25263 4 3.57926 4.53329 13.9916 -29.8782 2.61607 -35.4589 
25197 4 3.26023 2.0922 14.7531 -11.0571 -21.6145 -6.77786 
25192 4 3.04502 -0.482259 14.848 -7.79427 -16.9538 -5.78458 
25196 3 0.518675 0.976336 15.3838 11.9217 -16.2348 9.84477 
25190 8 2.36472 0.840588 15.7913 -24.0021 23.844 -28.8276 
25240 6 2.97922 1.0114 17.5853 14.8136 10.8942 1.17783 
25519 7 3.36305 0.02217 18.0377 6.59084 17.8653 1.79633 
25507 7 3.90375 1.58256 17.6793 -6.57477 -5.09929 -28.1908 
22649 6 4.08788 4.14002 16.6852 -31.5491 10.7287 -36.6594 
25308 6 0.0636474 4.71618 15.2675 -24.9811 -6.94829 1.58635 
25270 6 1.58591 4.58454 17.5839 -25.5964 2.27755 -21.9314 
25310 7 1.65899 5.13007 18.3611 -4.41036 -15.5498 -3.33174 
22655 1 6.37544 4.67075 12.8239 -4.48261 4.86373 0.199795 
25194 5 1.89442 -1.62182 13.1754 0.00494806 -13.4549 -20.0564 
25189 2 3.31878 -1.5892 13.8009 47.3779 -91.0102 91.9656 
25309 7 2.42139 4.11179 17.4904 10.3516 -2.26095 -1.75796 
22683 6 5.86904 1.1186 15.3387 -22.5473 -11.9907 -1.46108 
22684 7 3.62319 3.56359 16.0573 1.80084 9.31695 8.40271 
22644 3 6.82725 4.48391 15.2509 35.8721 -16.3624 15.9965 
22759 7 4.34815 4.36389 18.6162 2.75867 -1.1718 5.54836 
22959 9 6.11501 4.3452 15.9891 15.5252 5.60618 2.66033 
22685 7 4.19683 4.9887 16.1656 0.752308 18.1666 14.3151 
22651 7 6.48942 1.7282 15.8126 -4.41136 6.8715 3.35435 
20062 7 6.31397 1.40151 17.923 3.50364 32.2376 2.34582 
20061 7 5.86795 2.92993 18.0329 9.31872 6.47819 1.12031 
22650 7 5.02958 1.6169 15.4066 -13.6228 2.48351 -4.02511 
20023 6 6.66302 2.39649 17.8285 9.00224 27.8009 -3.49125 
25236 7 0.635429 0.242313 18.7468 2.96031 6.57301 -4.35214 
22717 6 5.1229 4.60632 19.1514 -14.2526 -3.01551 -0.0799548 
14844 7 22.8814 -2.50302 15.8021 4.35983 -3.0638 -8.7333 
22760 7 5.5803 5.26369 18.6161 1.27489 0.822074 -2.86606 
22687 7 5.36697 -0.978774 19.2034 3.27393 -7.40529 -6.80541 
20022 6 13.5573 2.16339 17.3003 20.1262 -11.2616 -18.0084 
20101 7 7.43333 -0.661073 16.7053 3.52543 2.2522 -0.535941 
22931 9 9.48181 -1.02217 15.7263 8.57921 4.11882 -44.5088 
22643 5 10.3472 2.57234 12.1955 -2.76278 -4.53043 -9.6284 
20083 1 12.0539 4.57824 12.2941 20.2746 11.829 25.6039 
22642 5 7.78438 2.32799 12.6693 -1.40821 -8.00786 -20.0656 
22572 5 10.3915 -1.19034 12.4814 -2.46669 -7.16452 -13.9403 
22647 5 8.01803 -1.15376 13.3887 6.07524 -10.5753 -18.2213 
20029 1 12.4935 0.818447 12.5759 -2.26839 6.89573 -11.697 
20095 5 13.8672 2.81253 13.0198 -11.3799 -11.326 -14.2079 
22637 2 9.23854 2.21284 13.1776 44.628 -27.0939 72.6026 
22565 2 9.47766 -0.798971 13.6553 33.9789 58.5684 29.9426 
22641 4 9.6135 0.790931 13.697 -29.5271 -14.919 -30.3186 
22640 4 9.10375 3.21619 14.2882 -9.72516 -10.8571 -2.58257 
20060 6 12.1156 0.900498 15.091 -26.9135 -10.8831 0.00533613 
20025 7 12.3084 0.688154 16.0023 3.18585 2.32465 -3.87835 
22638 8 8.71613 4.50599 15.4747 62.5008 49.7393 31.2958 
20024 7 11.2209 0.57049 14.9376 9.2349 0.697906 -4.74911 
22688 6 9.66814 4.45729 17.1347 1.18208 -4.54215 24.9728 
20130 6 8.27716 -0.318512 17.0201 2.31314 -0.232302 1.57393 
20016 5 13.8732 -1.10957 13.0216 -11.2664 -15.7932 -21.4035 
20100 7 8.02233 0.524015 17.426 -0.741884 3.75601 0.113568 
22967 7 9.17197 4.00423 17.9853 -1.19007 1.62945 2.59883 
22571 3 10.1192 -1.34465 14.9698 -19.2263 -20.1111 5.5327 
20064 7 14.4239 1.90491 16.8461 8.20675 2.4246 8.71482 
20063 7 13.1476 2.71977 16.6955 -1.66174 -0.454203 -2.10302 
22955 7 9.84305 5.46111 17.5469 0.752216 2.0756 -3.9617 
22918 9 8.84738 -1.06817 18.6902 3.60138 3.3657 61.1793 
20096 6 11.8827 0.338017 18.9486 -10.557 -4.86468 -4.15753 
20098 7 11.7721 3.29594 18.6034 2.35542 4.1407 -2.28734 
20135 7 12.3859 0.843618 18.3309 6.36039 -0.25588 -5.88495 
22919 9 7.8952 2.7024 18.9723 20.626 5.68186 36.1254 
20366 9 14.2224 2.53561 18.9475 6.23324 2.94177 30.1114 
20099 7 10.311 3.39898 19.257 24.9919 4.62388 -6.55457 
12405 7 29.9604 11.1837 17.7111 -2.80017 4.94991 -1.59544 
12510 6 29.7956 21.8438 17.5944 -2.5209 -12.3223 -10.1249 
25201 6 -0.150441 0.714016 19.0163 -13.0654 -13.0126 20.0289 
12552 7 28.6276 23.4686 18.1113 13.5256 7.6604 -0.018244 
17475 7 17.8097 -2.25195 16.3076 4.20313 2.79365 -0.59291 
20367 9 14.7705 5.00471 18.8608 -1.23219 -3.25215 -47.9265 
20379 9 16.4529 1.92026 15.0832 -3.96979 3.17087 -32.8302 
20378 9 15.4007 0.0444891 14.8487 1.63108 8.65446 -22.0522 
20012 2 15.2359 -1.61828 13.5115 -2.01636 72.1749 69.6331 
17469 5 19.9364 -1.30131 13.4326 -4.17362 -11.0888 -13.6939 
20017 5 16.2815 -1.21496 12.5395 -17.6499 -3.41265 -25.5127 
20020 5 16.2894 2.4578 12.6312 -7.06796 -5.34693 -13.0055 
17477 1 18.4308 4.50707 12.7514 50.1096 43.2553 53.3128 
17458 1 18.218 0.637135 12.871 44.2147 32.3822 10.8304 
17464 5 19.9587 2.61017 13.0923 -6.97427 -12.2953 -13.4083 
20014 3 15.3481 -0.927596 14.9324 -18.9244 -14.6943 -6.40108 
20013 2 15.2355 2.86552 13.6686 14.3638 -12.663 63.3361 
20089 4 15.4847 4.41259 13.8828 -16.1816 -10.0994 -20.4508 
17460 2 21.2934 2.30374 13.8302 64.6819 108.48 100.791 
17386 2 21.2555 -0.760946 14.0881 56.2301 113.81 29.5233 
20019 3 15.4798 1.97547 14.9289 -15.2251 -16.8704 -4.13621 
17466 6 17.9902 0.83867 15.4403 -40.7979 -10.3238 4.80488 
17494 7 18.2636 0.118841 15.9939 8.8195 -5.82467 -3.01366 
17493 7 18.4929 1.58871 15.8178 5.18059 5.94349 -1.75562 
17471 6 19.2463 2.98586 16.9865 -29.1307 -29.1891 -10.6132 
17510 7 20.0252 2.8149 16.4387 14.622 2.86884 -0.364214 
17509 7 19.5189 2.58325 17.7916 -5.58767 1.35288 -20.6213 
17463 4 21.2166 0.803669 14.1626 -17.1521 5.92315 -29.9241 
17508 6 18.051 4.94948 15.1674 -32.0884 5.44768 0.195578 
17473 7 18.3234 4.3333 15.909 9.75804 7.82216 1.90374 
14959 7 19.9037 -0.926597 18.2213 -0.484702 -2.93649 8.01473 
14960 7 20.439 0.424509 17.5126 -2.07954 -0.682265 -3.96653 
17391 3 21.4003 -1.48129 15.4379 -30.4028 -12.3726 7.02422 
17825 9 20.8824 -0.932424 16.1198 4.62696 3.03192 24.6634 
17462 3 21.5583 3.06508 15.1921 -21.0894 -34.9062 18.5976 
14918 6 19.9239 -0.352696 17.3615 -5.58931 -12.1615 -9.06869 
17583 7 16.2448 3.31914 18.4737 2.0199 3.69213 -4.17909 
17826 9 21.3691 3.99856 15.0151 -0.529393 21.0466 -9.50555 
17544 6 16.8909 4.04022 18.4291 -18.965 -16.7613 -1.7149 
17582 7 17.5889 3.747 17.8071 8.89254 2.7942 -2.011 
17456 7 16.2857 -0.554043 18.6922 20.5018 2.15168 -0.148941 
17457 7 16.4934 0.87288 19.1049 4.34763 -7.62699 -5.33152 
17499 3 20.914 2.12119 18.9595 -19.0651 -27.4985 3.34696 
17503 6 16.96 0.0790682 18.9926 -33.9071 -7.6133 2.71753 
17813 9 21.4132 2.96312 18.9773 12.9916 27.2698 20.2666 
20123 3 14.4884 5.8951 19.108 -16.593 -14.3518 -9.17871 
14905 7 22.0568 4.89862 18.6832 15.6638 11.5539 -4.91433 