ITEM: TIMESTEP
320000
ITEM: NUMBER OF ATOMS
25517
ITEM: BOX BOUNDS pp pp ff
-3.8959205201285124e-01 6.0088135642019459e+01
-1.9452389155355383e+00 5.9115524189537531e+01
-1.2206056431032383e+01 1.1390111600702880e+02
ITEM: ATOMS id type x y z v_stressx v_stressy v_stressz 
25292 7 5.89857 3.03966 7.5916 -2.44749 -8.45149 -6.15581 
25293 7 5.98077 1.53035 7.7064 -1.88927 -5.84857 -1.85694 
25252 6 5.35811 2.25094 7.51796 -6.35412 -3.29022 0.164954 
25287 5 0.61597 0.755495 10.7564 7.79195 -1.901 4.78229 
25283 5 2.94291 4.2301 9.842 10.8004 6.45306 -12.9251 
25281 4 1.3887 2.44216 9.07367 -13.1339 1.85802 -16.3918 
25280 4 1.07853 5.00258 8.46007 -12.939 -8.60201 -6.92663 
25277 2 1.45655 3.94107 9.49571 52.5315 35.9816 79.6524 
25215 5 2.99957 0.588718 9.72621 -14.6209 -10.1772 -11.4578 
25209 2 1.59287 0.935181 9.44522 8.65728 -57.3079 72.4634 
25188 1 4.8243 2.58953 9.97468 5.37323 1.37654 14.1375 
25214 3 0.796635 0.0137284 8.44439 -2.56095 -4.91119 2.806 
25282 5 0.520916 4.37471 10.6565 -14.7624 -14.2218 -17.8554 
25458 9 1.40812 -0.435335 7.83607 0.0256827 2.10062 1.72248 
25206 1 4.52732 -1.17961 10.115 34.5743 37.9019 19.2298 
22660 5 6.52822 0.875659 10.2203 -1.3035 -5.77097 -15.5426 
22735 5 6.623 4.87348 10.5536 2.245 -9.49146 -14.1221 
25505 7 1.83983 5.65447 5.50835 -0.0550885 -0.160558 -0.295771 
22662 3 7.17647 4.29529 8.22411 -12.255 -23.2594 -18.3809 
22658 3 7.30314 0.346889 7.89736 -15.1053 -15.4107 -11.66 
22905 9 7.65252 -0.485879 7.46068 0.0272063 -0.410692 -4.47227 
22906 9 7.50322 4.57024 7.35908 -2.69833 4.3644 9.77695 
20115 7 11.1372 2.292 6.49758 0.448731 -0.00333039 -1.1418 
22656 2 7.7059 0.365729 9.40584 22.8388 74.9316 62.4812 
20116 7 12.1136 2.88755 7.40659 19.7413 6.75047 2.82354 
20078 6 11.1398 2.86581 7.23657 -16.0432 -11.7468 1.50628 
20106 3 13.741 4.72985 7.46261 -15.9659 -11.2106 42.0057 
22657 2 7.60419 5.1024 9.41016 55.1549 -14.7395 22.3606 
20036 3 13.619 0.47741 7.57109 -16.7276 -19.6365 16.5662 
20107 4 13.6664 2.6833 8.8298 -18.1316 -14.0863 -34.0836 
20104 2 13.8784 4.18168 8.97251 32.3413 36.8412 94.1171 
20031 2 13.7132 1.1448 8.96008 63.0729 164.537 16.2121 
20108 5 12.6966 4.70757 9.81807 14.7438 11.904 2.25997 
20112 5 12.4932 0.846951 9.91178 10.8022 -0.569787 5.40786 
22654 1 10.4859 2.78478 9.68506 11.5963 10.6058 11.183 
22661 5 9.03983 1.11007 9.56315 -7.60579 -6.68643 -16.2485 
22663 5 9.10858 4.7108 9.73761 4.2073 -12.9187 -15.1398 
22563 1 10.886 -1.13469 10.1589 -0.627015 -0.384111 -23.4907 
22659 4 7.7627 -1.12896 9.68153 -9.50792 -34.7013 -34.2948 
22629 6 11.3751 -1.065 7.76545 -16.8135 4.95408 2.36499 
22669 7 11.9249 -0.207968 7.44815 1.30741 5.22889 -1.26563 
20352 9 13.8605 1.22514 6.87465 0.752208 12.5526 14.7081 
20189 7 14.2777 3.18994 6.51456 0.31671 13.5621 8.42444 
20353 9 14.543 5.23857 7.22704 7.77513 13.236 16.8436 
20148 6 14.5671 2.45013 5.87332 0.143096 0.0556989 0.0986011 
22740 7 11.2703 5.5881 6.8279 3.30322 1.49148 -1.1377 
22738 7 8.76742 5.41578 5.90114 -0.669834 0.708058 -1.31782 
22701 6 7.85394 5.37142 5.69312 0.411273 -0.345633 7.74484 
22739 7 7.886 4.86164 4.87022 -0.0108036 0.0203855 0.00862063 
22670 7 11.9327 -1.89861 7.72342 1.06538 1.69206 -5.19482 
20188 7 15.4435 2.20345 6.22553 0.818087 -0.13125 0.0774094 
20037 5 15.0057 0.565552 9.66218 -0.984581 -7.03549 -13.0523 
20118 7 17.8719 2.63796 7.70159 5.673 -0.285737 -2.91274 
20117 7 17.6995 1.17882 7.44002 3.04033 2.58911 -4.6753 
17799 9 19.455 -0.241526 7.33338 0.350129 6.61828 17.907 
20077 6 17.1284 2.01775 7.60787 -23.2415 2.18024 26.6574 
17484 3 19.536 4.02271 8.03155 -4.30161 -2.61891 -2.36053 
20109 5 15.1822 4.68195 9.53593 -5.98543 -7.46667 -16.7615 
17480 3 19.3808 0.510653 7.95906 -16.6312 -32.1054 11.1148 
17478 2 19.7385 0.13463 9.405 33.4985 35.512 49.5371 
17479 2 19.7269 4.90401 9.32133 47.5795 113.128 58.0096 
17485 5 21.0972 4.45706 9.83859 4.99309 -15.8615 -16.0079 
17483 5 21.125 0.57616 9.92672 4.84551 -10.2364 -13.7404 
17482 5 18.7273 0.612358 10.4453 0.944007 -3.76462 -5.64651 
17560 5 18.5746 4.39351 10.2378 -1.0435 1.72239 -10.5485 
20011 1 16.7883 2.43064 10.1919 50.1412 45.9752 42.2638 
20028 1 16.5417 -1.33752 10.1131 23.81 17.2332 10.3023 
17481 4 19.613 -1.37684 9.30614 -12.6242 -19.5837 -38.2893 
17800 9 20.2785 3.41394 7.96437 0.338048 -2.87403 -5.44162 
20002 6 16.2002 -1.21507 7.53432 -10.5116 -7.63645 13.2005 
20044 7 15.5857 -0.449442 7.68688 4.39701 8.62641 -2.72631 
20043 7 16.3516 -1.12082 6.60323 0.285711 0.204044 -0.838952 
17377 6 19.8786 -1.6773 6.3322 0.24602 -0.140583 -0.0132371 
17415 7 20.5742 -1.92657 6.98281 2.88198 2.4986 2.12024 
14864 7 23.6314 3.83266 7.75133 5.59643 -4.6752 -1.47857 
14825 6 23.2988 2.969 7.82153 -9.31159 -3.85998 1.40256 
14863 7 24.1611 2.53617 7.90018 3.87599 -1.29545 -0.61202 
17476 1 22.5994 2.5974 10.2549 -65.3635 -40.8115 58.1721 
14928 3 25.5679 4.59148 8.20809 -31.4264 -50.0844 -46.2833 
15246 9 24.7065 0.00657495 8.04332 7.98327 10.8159 19.9775 
14856 3 25.5405 0.383335 8.16649 -12.62 -14.8646 10.8667 
14929 4 25.6618 2.47021 9.27814 -17.8286 -35.2584 -34.6369 
14851 2 25.7726 0.935136 9.6021 19.9714 -188.428 77.104 
14926 2 25.8313 3.99121 9.61155 28.9709 145.734 89.9264 
14857 5 27.172 0.513951 10.0212 -9.70126 -12.1204 -21.0837 
14931 5 27.2703 4.30837 10.1061 -28.4084 -11.3965 -17.9672 
14832 1 28.9014 2.41808 10.4207 16.2313 12.2811 60.9417 
14930 5 24.8007 4.37565 10.6576 12.3981 -4.37364 -13.0487 
14934 5 24.7275 0.511689 10.6576 4.54169 -4.32185 -1.55876 
17384 1 22.8636 -1.16741 10.5973 -2.17836 4.18532 -19.5 
14848 1 28.7231 -1.43222 10.2624 15.1003 19.4844 -13.4424 
14898 6 29.1786 2.45721 7.88738 -13.7989 -15.4088 6.44208 
15247 9 26.3681 4.66526 7.72718 -1.61213 -1.09024 -15.3169 
14826 6 28.1456 -1.3901 7.71182 1.2117 -3.54472 27.6302 
14861 7 27.5228 -0.59177 7.7367 5.02449 5.86435 -2.35837 
14862 7 28.7608 -1.17174 6.9734 0.15639 0.0389717 -0.0701786 
17565 7 23.8543 5.62398 7.62904 12.5354 3.75806 -1.62534 
17491 7 23.3409 -0.830267 7.25909 0.100991 0.0728777 -0.45518 
12347 6 29.4782 5.3719 8.00631 -15.393 -7.34577 3.93898 
14939 7 29.2544 3.33895 7.63004 0.455934 -0.919184 -1.2201 
17492 7 24.1978 -1.77871 8.08715 8.24485 2.46624 -6.22354 
17450 6 23.2929 -1.42611 8.02021 -21.6878 -6.96749 18.9455 
25291 7 5.22591 6.53661 7.32751 1.20911 1.67025 -3.1448 
25290 7 3.82687 6.55555 6.86919 -0.6636 1.6774 -4.35946 
25253 6 4.33607 6.71227 7.63615 -9.71997 -11.7109 2.05242 
25517 7 1.84279 7.29014 5.50902 -0.0245468 -0.0542122 -0.551951 
25313 6 1.21101 6.45671 5.78137 5.9646 -5.46916 30.2763 
25362 7 1.19888 10.608 6.31952 -0.0138092 -0.00724057 -0.0205658 
25275 1 4.36027 6.50413 10.1833 3.99771 13.2569 12.5296 
25278 8 0.639374 6.49188 7.63496 53.333 32.3494 10.1734 
22958 9 3.89074 10.3239 7.2783 -3.44317 1.52269 0.329504 
22732 3 4.70032 10.3548 7.96195 2.2478 -12.7649 13.2673 
25359 5 0.701437 8.49354 11.0939 -10.2084 -10.4357 -16.8826 
25356 5 3.08021 12.146 10.2169 9.92393 -0.00874274 -12.7135 
25355 5 0.535314 12.2845 10.6518 -3.11368 -5.4682 -7.80011 
25354 4 1.48185 10.2856 9.54639 -14.3196 14.0904 -26.7115 
25353 3 1.39194 12.6945 8.41831 -11.7745 -7.88379 3.70477 
25351 2 1.63225 11.8296 9.72046 42.3493 48.4495 66.1609 
25286 5 2.93236 8.28049 10.0288 -5.88399 -16.2096 -19.1819 
25285 4 0.892127 7.85648 8.74192 -21.0334 -18.9292 -4.91773 
25279 2 1.49492 8.71367 9.83417 18.4286 99.8955 78.1196 
25259 1 4.86194 10.2149 10.3927 7.85722 9.25225 57.1375 
25327 6 1.60703 9.7444 6.34125 2.30271 1.27989 -0.810493 
25363 7 1.38635 9.50649 7.2315 0.546322 2.83811 1.50149 
22807 5 6.5607 12.2849 10.8694 -15.8845 -14.5376 -17.2094 
22730 5 6.65234 8.34528 10.5398 -4.67722 -14.7599 -12.7571 
22726 8 6.48614 10.4372 7.49213 -1.42535 18.2145 -25.2257 
22761 6 7.05704 10.8316 5.66761 1.73505 2.47996 6.82514 
22733 4 6.9844 11.7221 8.61372 -10.9697 -12.7755 -2.57065 
22728 4 7.23016 9.05362 8.29312 -12.9816 -20.3616 -5.83065 
22953 7 7.91026 10.1976 5.3838 -0.0660174 0.101126 -0.65191 
22965 7 7.33207 11.8331 5.45166 -0.0479999 0.142173 -0.277107 
22741 7 11.5 7.01103 7.05421 2.62498 -0.0259983 -1.51408 
22700 6 10.8104 6.36788 7.23855 -16.3238 -2.19972 17.9444 
22636 1 10.9188 6.69179 9.82281 4.03602 9.18559 11.0397 
22729 4 7.48133 6.61374 9.11192 -11.469 -8.60681 -27.5416 
22668 7 10.5831 8.59932 7.42923 1.94708 4.37072 -3.05745 
22725 2 7.70374 8.13304 9.39568 28.0643 32.1653 95.8618 
22727 2 7.53968 12.6129 9.75953 18.4637 134.068 79.613 
22630 6 10.7174 9.56513 7.55044 -8.27763 0.664197 5.03892 
22667 7 11.6785 9.56 7.58776 1.28561 0.74553 -1.27138 
20110 3 13.3722 8.00482 7.87861 -11.1877 -1.11122 -4.02505 
20176 4 13.3404 12.979 8.33811 -6.60408 -7.00014 -4.18247 
20177 4 13.5478 10.5013 8.95979 -6.3989 -0.406871 -16.5647 
20173 2 13.7057 11.9908 9.40771 34.2847 -3.72021 79.6707 
20105 2 13.7244 8.93675 9.12343 -1.26975 7.16337 84.8356 
20178 5 12.5598 12.2564 10.4158 -7.6742 -12.4193 -21.5447 
20183 5 12.8988 8.51128 10.3587 -3.61085 -11.319 -6.54321 
22734 5 8.97942 12.4092 10.1072 -12.6186 -12.653 -17.2793 
22723 1 10.5486 10.4168 9.97488 -2.89701 4.36871 9.03231 
22731 5 9.11607 8.33188 9.85191 -15.6968 -24.4212 -21.2896 
20354 9 13.8366 7.1662 8.02076 -1.02261 -12.3082 -25.3447 
17489 7 15.3685 7.53149 7.27379 -6.19552 -2.26955 -3.76255 
17490 7 16.4114 7.08597 6.51817 -0.224951 0.0342477 -0.308818 
17451 6 15.9423 6.78743 7.29642 -18.7996 -17.2686 17.2867 
17555 4 19.5148 6.40419 9.24816 -10.9821 2.51621 -17.6786 
20102 1 16.4765 6.46221 9.86905 10.967 0.257184 17.9235 
20179 5 15.0791 12.3713 9.86379 2.52262 3.57588 -11.6651 
20111 5 15.0953 8.51182 9.52882 -26.3821 -13.9605 -14.5189 
17802 9 19.4832 11.878 7.51898 -0.105985 -0.0961566 0.170623 
17554 3 19.6317 8.68088 7.9737 -1.93278 -5.35299 6.1626 
17801 9 19.3812 9.57046 8.10065 0.6808 12.2211 6.37548 
17558 3 19.3121 11.5602 8.35726 -4.29629 -2.26804 -0.664051 
17552 2 19.7279 7.97853 9.40881 25.8701 58.3719 58.0559 
17553 2 19.7446 12.5897 9.5152 43.5203 44.1113 69.2831 
17559 5 21.2085 12.1329 9.83297 6.85146 -0.632945 -10.5295 
17557 5 21.1128 8.33065 9.93016 0.930569 -11.6875 -15.3849 
17556 5 18.49 8.44005 10.194 12.4965 -3.86546 -6.29507 
17631 5 18.754 12.2185 10.6826 1.83228 -5.65644 -5.01563 
20084 1 16.8199 10.2664 10.3615 -10.7675 -3.934 -0.964317 
17566 7 22.7737 6.49197 7.09029 0.095082 0.0188959 0.052482 
17525 6 23.2369 6.30614 7.97014 -30.0504 -6.06556 17.2228 
15249 9 26.4199 12.3989 7.50271 0.849254 0.691099 0.256564 
14924 1 28.8784 6.30371 10.2599 25.0871 20.5592 9.13573 
17459 1 22.8153 6.36449 10.4136 -83.4207 -67.7643 38.7157 
17550 1 22.6813 10.1773 10.109 18.798 17.5139 8.18151 
15248 9 25.0074 7.30471 8.25379 6.7465 8.9048 8.65963 
15002 3 25.5553 12.1132 7.86039 -4.88815 -8.86384 8.94781 
14932 3 25.8534 7.69566 8.37038 -4.70417 -4.24116 1.40146 
15003 4 25.6929 10.0578 9.40228 -9.23659 -5.71316 -22.8329 
15000 2 25.8234 11.5586 9.33827 30.3868 103.233 71.4883 
14927 2 25.9265 8.52626 9.67582 40.5375 66.953 71.2778 
15005 5 27.2586 12.0307 9.65026 -1.73796 -12.8353 -16.4383 
14933 5 27.3368 8.19806 10.2714 9.52694 -14.039 -17.019 
15004 5 24.794 12.1885 10.2281 0.860057 3.11151 -12.1377 
14907 1 29.0423 10.186 10.3202 23.5456 18.6692 21.291 
15008 5 24.7476 8.17989 10.6591 15.6508 -0.123873 -2.1367 
14899 6 29.4402 9.94521 7.67407 -3.27276 0.0119569 5.2483 
17637 7 24.0129 13.1402 7.48134 1.61098 0.651839 -0.186569 
25427 5 0.471403 16.2254 10.9577 5.92939 -3.33648 -4.71687 
25424 5 3.05777 19.7432 10.2643 -15.0249 -6.42117 -9.42641 
25423 5 0.62854 19.9386 10.7649 3.96502 -4.30942 -9.04334 
25422 4 1.53223 17.8586 9.5283 -9.84731 7.19413 -14.1823 
25421 3 1.35286 20.1653 8.46116 -3.25545 -2.58447 -0.147608 
25419 2 1.68921 19.4163 9.80763 -40.8061 140.425 63.9753 
25358 5 3.0433 15.9649 10.3935 6.15608 -1.17684 -11.1416 
25352 2 1.62447 16.359 9.9389 57.4285 2.59111 35.5024 
25333 1 4.76049 17.9652 10.8964 -5.00308 13.3328 -14.2838 
25357 3 1.27516 15.4524 8.77037 -12.2271 -17.5487 19.5147 
25460 9 1.6173 15.8283 7.87293 0.0953049 0.366446 4.24418 
25349 1 4.58657 14.1062 10.6957 6.09958 16.6278 -31.8378 
22803 5 6.49129 16.0975 10.8756 1.15263 -0.432911 0.531782 
22875 5 6.46084 20.071 11.1158 20.1108 8.0589 10.5354 
25459 9 1.48999 13.6574 8.56205 -1.61514 4.92522 -4.13902 
22801 3 7.03055 16.5942 8.55987 -2.34214 -6.94301 4.07586 
2179 7 -0.387305 20.8468 8.22815 14.4379 2.23347 -6.3508 
22805 3 7.32975 19.3599 8.91011 -8.85714 -8.84407 25.7398 
22908 9 7.54595 19.9046 8.12021 0.0145282 0.263843 6.55003 
22774 6 7.84223 14.1301 6.46407 2.01115 1.26057 1.77304 
22907 9 7.21638 17.5067 8.66763 0.00253945 20.2642 1.79509 
22800 2 7.69826 20.1918 10.1825 72.5747 58.4956 35.2597 
22810 7 9.52718 17.6319 7.67339 -2.02729 0.966966 -1.92638 
22775 6 10.3724 17.5576 8.1234 -18.1648 -9.15928 5.97751 
22811 7 11.0269 17.744 7.42304 6.10622 1.08319 -1.08545 
20249 3 13.6146 20.1923 8.5115 -17.8383 -16.2373 19.3467 
22799 2 7.50164 15.6895 9.76752 3.02879 21.6062 69.5506 
20181 4 13.1648 15.598 8.7498 -9.74553 -32.1225 -12.0023 
20250 4 13.59 17.8559 9.69511 -14.2552 6.59024 -26.6906 
20247 2 13.6446 19.4223 9.89672 4.60214 29.5383 66.5067 
20175 2 13.7411 16.3389 9.95052 46.0387 116.703 83.5981 
20255 5 12.7826 16.0392 11.1348 -3.06713 -11.7806 -15.9795 
20251 5 12.5994 19.887 10.8751 -0.525998 -0.0236123 4.38576 
22797 1 10.5866 17.8329 10.6706 3.61518 -1.38158 27.0166 
22804 5 8.85928 16.0465 10.2629 -4.57279 -11.0133 -13.5545 
22806 5 9.15709 19.6726 10.6518 26.3162 -12.4699 -11.0857 
20209 6 12.874 15.0323 5.7533 0.470095 -0.37079 1.48028 
20174 8 12.7095 14.4625 7.54514 27.3894 11.0897 -53.7922 
22802 4 7.35344 14.1712 9.46207 -21.3551 8.94468 -29.1431 
22707 1 10.7485 14.2517 10.2767 12.3965 10.9262 2.7893 
20180 3 10.8086 14.0423 7.95232 18.1043 -8.92462 4.80366 
20260 7 13.0324 18.8856 6.99744 0.137866 1.34457 1.2965 
20261 7 12.9162 17.3666 7.33817 -0.518466 10.6885 5.76546 
20401 7 13.4229 15.9899 5.62814 -0.160266 0.312288 -1.2771 
20406 9 10.0189 14.4108 7.4707 -1.22202 2.86082 -2.32957 
20413 7 11.9327 15.1884 5.26927 -0.0683653 -0.0246879 -0.438974 
20222 6 12.7014 18.0477 6.67459 -0.755187 0.690873 -1.05302 
22813 7 7.7456 15.0607 6.62462 -0.0697197 -0.0488005 0.0703005 
22812 7 7.44152 13.8113 7.30537 0.750472 1.44925 6.54275 
17861 7 18.0327 18.1656 5.18632 -0.041322 -0.0256751 -0.195413 
17849 7 19.1146 19.332 5.5722 -0.0513195 0.152784 -0.564443 
17657 6 18.7692 18.3451 5.88217 -4.91983 -2.69728 15.0939 
20252 5 14.9691 19.7344 10.5394 -8.38332 -13.6384 -17.4933 
20182 5 15.2166 16.0409 10.213 -4.13894 -20.6024 -13.1915 
17622 8 18.5634 18.0799 7.75046 32.3941 27.8981 -13.4951 
17854 9 15.9449 18.6012 8.0719 -0.2792 2.01837 -3.19013 
17628 3 16.7563 18.0742 8.25458 3.98387 -9.95756 9.35218 
17624 4 19.3217 16.6826 8.46567 -7.90235 -11.5401 -4.01278 
17629 4 18.9827 19.4332 8.85904 -13.8676 -12.3823 0.416814 
17621 2 19.6951 15.6526 9.54627 46.5893 95.4823 82.3095 
17623 2 19.5501 20.2671 10.0023 54.7192 27.005 73.9254 
17630 5 21.0316 19.7719 10.2793 12.4705 -2.69159 -14.9597 
17627 5 21.1919 15.89 9.96206 1.13394 -17.7227 -16.1809 
20155 1 16.8424 17.9752 10.6946 2.50217 10.8383 -14.8583 
17626 5 18.7672 15.8963 10.7355 -8.63649 -8.73327 -11.2335 
20171 1 16.7158 14.1373 10.3208 5.0675 6.49173 -36.6312 
17625 4 19.606 14.0957 9.12525 -6.10793 7.89949 -11.8396 
17564 7 21.4906 17.2833 7.58657 -0.558674 1.58361 -1.09618 
17703 5 18.6795 20.0258 11.2014 -15.3792 -12.6954 -20.783 
17709 7 19.905 20.6273 7.34679 2.93352 4.98206 4.2917 
20259 7 15.568 20.8847 8.4035 12.2299 3.61951 -2.1647 
17526 6 22.4132 17.452 7.70597 -7.71724 -6.80906 17.5046 
17563 7 22.8092 16.6576 7.3521 0.271014 0.363925 -1.85529 
17619 1 22.5682 17.9268 10.3236 11.5513 12.5577 -19.8998 
15250 9 25.4259 16.554 7.3496 3.27517 4.22588 70.5323 
15006 3 25.6058 15.7572 7.92658 -17.5269 -12.3578 55.219 
15072 4 25.3173 20.4252 8.40544 -13.2 -8.13157 -3.32231 
15073 4 25.9599 17.9542 9.15621 -16.1853 6.08764 -35.5826 
15069 2 25.8295 19.4844 9.52152 47.8855 197.379 69.924 
15075 5 27.2671 19.8707 9.91392 4.91579 -4.36474 -14.6301 
15001 2 25.8934 16.4473 9.39988 32.6141 22.9439 34.1656 
15007 5 27.2951 15.9854 9.7832 -0.449927 -10.6609 -15.5738 
14980 1 29.1857 17.8209 10.1444 -12.5705 -20.2961 13.9041 
15074 5 24.8028 19.6389 10.6176 -6.03187 -5.28574 -18.783 
15079 5 24.8396 16.1163 10.4638 8.35691 -3.49328 0.843768 
12533 7 25.4571 18.3754 7.23091 -0.327862 4.56788 6.27318 
17532 1 22.9834 14.1035 10.1761 10.0417 12.6332 8.38584 
14998 1 28.6373 13.9834 10.0874 19.8948 24.966 12.5157 
12492 6 25.1645 17.9196 6.43544 -1.28386 -1.73139 -0.957207 
12532 7 24.2391 17.8074 6.45162 -0.0689648 0.014783 -0.219368 
17636 7 24.2982 14.6547 7.77674 3.17981 -4.6798 -4.56809 
17597 6 27.3956 19.7327 6.47718 -16.4516 -1.14791 0.826111 
17635 7 27.0344 19.9354 7.31032 6.41745 1.28024 -2.0723 
17596 6 23.5563 13.9987 7.66239 -11.4135 -1.59559 4.59893 
14974 6 28.7308 14.0837 7.53935 -5.89586 -10.9651 6.92097 
17634 7 26.9707 18.9124 6.11254 0.290329 0.570753 -0.152526 
15084 7 28.6931 18.2675 6.90767 0.602707 2.78204 -1.47211 
15012 7 28.1952 14.867 7.30744 1.79602 1.80949 -1.65687 
15044 6 29.2899 17.8272 7.55162 -18.4959 -15.5833 13.7761 
15011 7 29.5706 14.1102 6.99075 5.06775 0.883737 -0.19788 
25461 9 1.63963 21.1191 8.56579 -0.402642 9.0428 -5.9511 
25417 1 4.459 21.7465 10.9217 -17.1394 -19.66 -34.1446 
24923 5 0.754769 27.5218 10.9484 5.89911 1.70054 -1.54823 
25425 3 1.35108 22.98 8.77836 -10.7993 -8.46326 18.2727 
24927 5 0.559259 23.61 11.1153 15.6111 -1.6126 8.05868 
25426 5 3.10363 23.8017 10.4009 3.68224 -9.34273 -9.07844 
25420 2 1.64879 23.9265 10.0018 36.1062 98.0948 56.4649 
25401 1 4.97038 25.5329 10.7242 11.5061 5.02374 -1.17581 
24924 5 3.18735 27.1766 10.4054 -6.13357 -6.31079 -13.387 
24922 4 1.38256 25.4386 9.75254 -16.5178 10.4112 -16.2787 
24919 2 1.7823 26.9563 9.95451 1.48986 145.238 57.6677 
24921 3 1.55556 27.7248 8.56562 -3.28345 -0.967755 8.37534 
25462 9 1.60156 23.3783 7.96981 -0.0535327 0.1196 1.81816 
22871 5 6.64021 23.6959 10.9095 4.8838 -4.70695 -5.25369 
25451 9 2.36751 27.8615 8.13061 0.054404 0.483035 1.54961 
22375 5 6.78156 27.3777 11.2762 2.14809 -3.7615 -4.52619 
20355 9 13.7553 21.1037 8.67011 -2.48137 21.4322 -0.615623 
22873 3 7.36095 26.8242 8.94079 -1.99315 -3.04836 22.6259 
22910 9 7.83453 27.1872 8.16884 0.0217263 0.305731 5.20604 
22881 7 10.5673 22.2037 7.78641 0.176115 0.152708 -0.585355 
22880 7 12.0072 21.7432 8.22322 12.0963 4.4858 -4.44204 
22869 3 7.56442 24.0265 8.5961 -0.890638 -1.30256 0.730223 
22842 6 11.0399 21.8185 8.50693 -11.5687 -8.8242 2.30951 
22909 9 7.42422 24.9915 8.72358 -0.244984 9.51036 -0.614402 
22870 4 7.80675 21.6814 9.76784 -10.1724 12.7515 -14.2068 
22781 1 10.8959 21.6885 11.0129 -24.9764 -19.0487 27.7892 
22868 2 7.76545 27.7412 10.1816 38.7113 97.8695 37.8772 
22867 2 7.78902 23.2324 9.92461 55.2734 190.666 70.9121 
22381 7 12.0152 26.341 8.4485 11.1256 9.26433 -1.32574 
20253 3 13.4682 23.4016 8.82795 -29.737 -28.0224 6.55019 
22380 7 10.8121 26.2531 7.54966 0.0748165 0.107492 0.0993373 
22342 6 11.2091 25.8188 8.3988 -19.4433 -2.9122 29.7447 
20317 3 13.3219 27.8427 9.08682 -10.5641 -13.3169 -8.4898 
20248 2 13.7696 24.0294 10.2263 8.80383 4.74157 108.724 
20318 4 13.624 25.5447 10.0164 -29.2618 -19.0749 -42.2357 
20315 2 13.7788 27.0543 10.3348 51.7151 -14.4615 80.784 
22865 1 10.6865 25.3992 10.9226 12.4252 11.1067 26.9982 
22872 5 9.17462 23.6871 10.462 5.16796 -15.7915 -13.8375 
22874 5 9.24947 27.6706 10.5948 6.72615 -9.68641 -9.94389 
20356 9 12.5954 23.6209 8.49206 10.3346 3.91217 -9.8488 
25431 7 14.1509 26.52 7.83751 1.10003 4.7489 6.71886 
20323 5 12.8525 23.6161 11.429 2.07633 -7.96679 0.391122 
25430 7 14.093 24.9955 7.86813 1.72761 4.75377 10.4528 
25395 6 14.4016 25.7329 7.27378 -0.141151 0.0900366 -0.156361 
20258 7 15.2294 22.3163 8.12146 1.37397 0.157434 -1.32774 
20223 6 16.0015 21.7513 8.2238 -7.3718 -1.33118 8.84223 
20245 1 16.5342 21.695 10.8038 16.4536 20.6482 32.1111 
17698 4 19.4354 21.7483 9.56107 -12.2814 -3.96579 -29.2247 
20320 5 15.2214 27.4242 10.856 4.37887 -11.2779 -15.4793 
20254 5 15.1801 23.5949 10.561 -16.0886 -11.6346 -20.8006 
20329 7 17.2434 26.6466 8.28058 4.03972 3.21384 -3.6086 
20328 7 16.0419 25.8023 7.61998 1.70883 -0.0144482 -0.0913285 
17803 9 18.6355 24.4714 8.19816 9.16991 9.22656 -0.613347 
20290 6 16.6573 25.8385 8.42977 -27.4252 -4.837 7.80564 
17697 3 19.4666 23.9299 8.24968 -7.52674 -15.5187 7.62598 
17701 3 18.7572 27.5768 9.07536 -11.6955 -29.6716 -3.46827 
17695 2 19.6311 23.298 9.64847 2.67029 6.28912 79.9917 
17696 2 19.6976 27.9701 10.2409 33.3713 100.865 89.0835 
17700 5 20.9899 23.6351 10.1729 -17.3667 -7.66218 -18.6288 
17702 5 21.0953 27.3466 10.1236 7.79464 -13.511 -19.7065 
17699 5 18.7076 23.7838 10.7613 -3.23317 -4.27683 -0.698285 
20229 1 17.0048 25.6018 10.9426 15.8077 15.3043 -75.0683 
17708 7 20.0702 22.1005 7.0657 -0.226833 1.41186 0.779156 
17670 6 20.1319 21.2549 6.64674 -0.766702 0.835157 -1.2833 
17707 7 20.7868 25.2363 7.6314 4.6885 4.92366 -0.0356942 
17706 7 21.1787 26.5559 8.43819 0.145185 6.53285 6.84554 
17671 6 21.5933 25.7538 7.94146 -0.457177 -4.83438 5.00477 
17804 9 18.1596 28.2261 8.79174 4.36176 -0.350022 -3.01385 
15302 9 22.12 22.0167 7.2663 -10.7426 2.29766 -0.64345 
15082 7 28.9341 21.4367 6.98265 -0.108112 1.92829 -2.97531 
15309 7 26.1711 21.1856 5.56242 -0.0506481 0.354676 -0.581543 
15297 7 25.7773 22.9358 5.36905 0.0252278 0.422395 0.0410134 
15076 3 22.8653 21.7306 7.945 5.12225 -10.3845 6.73006 
15105 6 25.4296 21.9972 5.7434 2.49404 2.77448 8.70862 
15067 1 28.5009 21.8246 10.3102 7.07475 13.6441 26.8303 
17603 1 22.8719 21.8054 10.3091 41.9535 31.4124 59.7999 
15070 8 24.6898 21.8654 7.53391 8.93469 22.1806 -5.06545 
15157 7 24.761 24.7113 6.5409 0.11291 1.45844 -2.12197 
17693 1 22.4585 25.6458 10.3024 35.4964 46.9193 71.6106 
15118 6 24.3516 25.0692 5.80024 0.215424 -0.0192824 -0.08647 
15156 7 23.4675 25.4068 6.08223 0.348133 0.0671132 -0.012003 
12750 9 28.7793 27.0604 8.02173 -18.1161 -1.26846 -3.502 
15145 3 25.8709 28.1424 8.32624 -25.3539 -10.2928 23.7054 
15077 4 25.2347 23.1977 8.50469 -14.9855 -21.823 -11.7402 
15146 4 25.5466 25.6818 9.29943 -8.03735 17.8624 -15.7004 
15143 2 25.8227 27.2278 9.63665 34.6687 58.2018 41.5134 
15071 2 25.6377 24.1622 9.58877 43.5073 137.652 68.8704 
15078 5 27.0823 23.775 9.8664 3.44433 -1.5793 -11.7279 
15148 5 27.2019 27.5255 10.2775 11.4455 -13.3184 -15.341 
15051 1 28.9278 25.6837 10.4438 0.521865 13.3695 41.5661 
15147 5 24.7278 27.7419 10.5663 3.80839 -1.97949 -7.56778 
12524 3 29.1596 26.0649 8.01414 -11.3382 -1.3498 8.9704 
15045 6 29.2043 21.7754 7.82857 -18.5867 -11.1775 4.95735 
15251 9 25.5134 27.6474 7.63837 -0.0597171 -0.271549 15.5728 
15151 5 24.6677 23.8201 10.7274 -4.89244 -8.33669 -15.4152 
25272 7 0.510505 4.39795 16.2062 10.7067 0.559411 9.28511 
25198 5 4.5419 2.55475 12.6561 -17.2222 -9.39898 -10.8429 
25195 5 4.3158 -1.09258 12.7632 -1.69014 -3.57354 2.52872 
25511 9 0.000660346 0.685859 16.1934 -30.3799 5.14174 -1.27991 
22635 1 6.05896 0.692999 12.8525 -32.3662 -11.4107 -5.54667 
25268 5 2.06322 2.89899 12.9931 0.222034 -9.9084 -21.9705 
25258 1 0.250924 4.4912 12.7638 11.0149 5.67907 11.8495 
25207 1 0.476342 0.786529 13.0733 15.5067 43.3614 27.1349 
25191 2 3.47612 3.03985 13.5769 22.9929 131.706 61.9161 
25263 4 3.57926 4.53329 13.9916 -29.1091 11.1561 -38.6917 
25197 4 3.26023 2.0922 14.7531 -13.6375 -30.6351 -13.1745 
25192 4 3.04502 -0.482259 14.848 -13.3582 -26.9026 -10.7828 
25196 3 0.71055 0.797356 15.4219 -1.40478 -17.703 10.2711 
25190 8 2.54403 0.852337 15.8064 -45.0112 -1.81738 -59.3955 
25240 6 3.33657 1.04623 17.5271 -14.9607 -4.21746 7.23747 
25519 7 2.88174 0.572432 18.3998 4.32101 15.9865 -7.452 
25507 7 3.65308 2.02288 17.8718 4.70441 10.9753 -16.1016 
22649 6 4.18318 4.22278 16.5869 -71.7887 -17.7401 -86.5031 
25308 6 -0.0485036 4.5445 15.3542 -16.6638 -8.23717 24.8266 
25270 6 1.77502 4.4221 17.6818 -22.4116 -11.7395 -18.1699 
25310 7 1.91466 5.15805 18.3015 -3.95809 9.22715 6.17062 
22655 1 6.37544 4.67075 12.8239 -2.55347 9.88181 -0.726866 
25194 5 1.89442 -1.62182 13.1754 -0.193114 -13.4848 -20.3529 
25189 2 3.31878 -1.5892 13.8009 50.1907 150.558 97.1154 
25309 7 2.68055 4.1779 17.2656 12.5846 -2.8432 -1.19571 
22683 6 6.22041 0.743728 15.4512 -12.5125 -1.26495 7.23117 
22684 7 4.13734 3.47242 16.0026 5.49003 5.85586 -1.52745 
22644 3 6.79136 4.75475 15.2627 24.9533 -14.3322 9.52485 
22685 7 4.04132 5.02611 16.0445 1.13848 7.98893 1.1538 
20062 7 5.5871 1.556 18.1469 -1.74027 4.42809 -5.94817 
20061 7 5.66957 3.04241 17.771 3.22971 8.18891 -0.646912 
20023 6 6.15706 2.19402 17.764 -21.3977 -23.8578 -20.2348 
25472 9 1.723 3.19045 18.7732 -0.259893 15.1332 16.701 
22959 9 6.19129 5.16059 15.9766 -12.1924 5.89862 -4.98017 
22651 7 6.47943 -0.216435 15.6496 3.77694 15.2481 -5.9932 
22650 7 5.79913 1.09988 16.2758 6.14248 6.36366 7.8305 
25236 7 0.480463 1.25813 18.5551 11.472 6.75647 1.15228 
22759 7 4.64105 4.93485 18.2161 -1.80938 -0.12258 -4.66644 
22687 7 4.85424 -0.69395 18.5489 4.70275 2.13383 -4.26474 
22648 6 5.36925 -0.253264 19.2744 -25.8605 -14.9578 -1.91238 
22717 6 4.97615 4.897 19.1185 -13.5766 -6.85075 -13.9025 
25201 6 0.0269024 0.404773 18.4129 -12.7502 -12.6243 -0.285966 
25227 3 2.26793 -1.52602 19.1089 -24.1408 -20.3176 10.7351 
25237 7 0.776199 -0.224848 18.5464 8.46239 4.72349 -3.66549 
17818 9 20.6569 28.2039 18.4596 6.46117 9.44641 -15.9753 
22919 9 7.45051 2.32585 18.7862 6.35262 7.25015 26.0199 
20022 6 13.6636 0.254499 17.1903 -19.161 -28.712 -8.84043 
20101 7 9.43167 1.19702 15.6915 -1.76244 2.81544 9.21716 
22931 9 9.50339 -0.747828 15.7218 4.69316 14.8739 -82.4151 
22643 5 10.3472 2.57234 12.1955 -3.17174 -5.01307 -9.57903 
20083 1 12.0539 4.57824 12.2941 11.9163 6.9397 23.9349 
22642 5 7.78438 2.32799 12.6693 -1.4883 -7.04839 -19.3774 
22572 5 10.3915 -1.19034 12.4814 -2.95676 -8.47081 -9.94944 
22647 5 8.01803 -1.15376 13.3887 7.50645 -15.4307 -19.1169 
20029 1 12.4935 0.818447 12.5759 -10.1122 -3.06471 -8.42707 
20095 5 13.8672 2.81253 13.0198 0.971213 -13.5387 -15.1228 
22637 2 9.23854 2.21284 13.1776 47.4268 -30.7754 65.8133 
22565 2 9.47766 -0.798971 13.6553 36.608 77.0269 45.4778 
22641 4 9.6135 0.790931 13.697 -31.4349 -16.7238 -40.5745 
22640 4 9.10375 3.21619 14.2882 -10.2293 -14.5646 -10.1532 
20060 6 12.1527 1.18875 15.1343 -5.81831 -8.12798 9.63762 
20025 7 11.2187 0.923304 15.3933 11.6651 4.57364 -1.37507 
22638 8 8.65918 4.53115 15.4165 42.3129 41.4136 26.7193 
20024 7 12.6823 0.899189 15.9459 -3.06519 3.5636 3.08835 
22688 6 9.70019 3.85513 16.9218 1.50027 2.43112 8.55365 
20130 6 9.15789 0.768282 16.4932 2.26781 -14.2579 -12.9983 
20016 5 13.8732 -1.10957 13.0216 5.805 -14.588 -18.1651 
20100 7 8.34959 1.23879 16.7541 3.50008 2.70888 -1.24335 
22967 7 10.186 2.92216 16.8832 6.00124 8.34024 -1.44062 
22571 3 9.96263 -1.39471 15.0624 -19.2256 -15.5329 4.27357 
20064 7 13.883 -0.260867 17.9846 -4.04144 13.1642 2.87544 
22918 9 8.97542 -0.790999 18.816 7.54513 7.51959 -1.04003 
20096 6 11.1429 0.00838041 18.6379 -26.2841 -14.1264 3.17188 
20135 7 11.9294 0.2037 18.2128 -7.61807 3.23546 -5.54849 
22955 7 9.37746 3.88912 17.9007 3.69902 3.20704 7.61347 
20134 7 10.4462 0.383591 18.0175 6.28583 3.91225 1.13468 
20366 9 13.9959 2.14138 18.3458 0.607192 2.8647 -80.3081 
20098 7 10.8186 5.25414 18.3001 -0.373258 3.59292 -2.42921 
20063 7 14.1363 -0.251596 16.4768 1.96352 6.72683 -2.47739 
20051 3 14.0254 -1.64374 19.2485 -16.2061 -22.6711 9.43389 
20131 6 11.127 4.81405 19.1555 -15.698 -4.23565 -1.9653 
20056 3 14.4828 2.7625 18.8886 -23.3962 -22.2574 -31.8997 
22679 3 7.97597 5.78826 19.2284 -25.3598 -16.5781 7.07453 
17474 7 18.4453 -1.38645 15.8173 2.84288 21.7765 -0.0461318 
20367 9 14.3908 5.44666 18.3601 4.31117 3.97094 40.3899 
20379 9 14.2145 1.75522 15.1873 11.2383 17.5579 25.967 
20378 9 15.4007 0.0444891 14.8487 2.30704 56.9449 32.6534 
20012 2 15.2359 -1.61828 13.5115 13.2731 141.533 79.271 
17469 5 19.9364 -1.30131 13.4326 -14.4277 -13.3437 -14.5849 
20017 5 16.2815 -1.21496 12.5395 13.0729 -1.34264 -0.0163364 
20020 5 16.2894 2.4578 12.6312 -0.292908 -5.38677 -5.78357 
17477 1 18.4308 4.50707 12.7514 46.6267 39.9436 53.0771 
17458 1 18.218 0.637135 12.871 54.5143 40.332 12.246 
17464 5 19.9587 2.61017 13.0923 -4.48851 -10.9924 -14.8709 
20014 3 15.3481 -0.927596 14.9324 -28.3404 -16.9103 40.6099 
20013 2 15.2355 2.86552 13.6686 27.9919 -7.33212 48.7841 
20089 4 15.4847 4.41259 13.8828 -20.4185 20.5894 -22.5289 
17460 2 21.2934 2.30374 13.8302 70.4837 6.59388 95.0357 
17386 2 21.2555 -0.760946 14.0881 51.8531 147.976 40.1606 
20019 3 15.1262 1.8734 14.8473 -14.7797 1.31916 8.30665 
17466 6 17.8342 0.602461 15.3964 -31.8686 -32.9009 -2.1258 
17494 7 17.2905 1.36309 15.6567 5.12026 2.82343 -4.2206 
17493 7 18.453 0.500092 16.166 9.57712 2.58703 2.5427 
17471 6 17.9264 2.50407 17.0954 -53.2767 -20.1916 -1.04401 
17510 7 18.1348 3.24774 16.4406 1.96994 11.4896 1.67582 
17509 7 18.7414 2.37225 17.5827 9.24669 -2.34206 1.02642 
17463 4 21.2166 0.803669 14.1626 -14.4729 -9.54503 -25.5518 
17508 6 17.9834 4.84591 15.1572 -29.5535 -13.1741 -7.23041 
14959 7 19.8545 -1.1101 17.7242 -0.158788 6.60016 2.28266 
14960 7 19.4774 0.388857 18.0912 2.60972 13.3905 18.0157 
17391 3 21.3815 -1.43638 15.522 -29.9685 -32.0493 0.372641 
17825 9 20.8798 -0.906155 16.095 -9.85478 1.24197 -110.313 
17462 3 21.3831 3.09733 15.1838 -20.2501 -35.3303 11.1919 
14918 6 19.6972 -0.240284 17.3269 -4.93844 -7.88908 -10.6292 
17826 9 21.2053 3.99713 15.0303 -1.11536 -0.457824 -8.40781 
17544 6 16.5406 4.47714 18.4102 -7.35327 -13.8666 2.64366 
17582 7 16.9994 3.78099 17.8032 7.14426 17.0808 -0.491914 
17456 7 15.7384 0.073273 18.048 -2.06022 1.65767 -5.52559 
17457 7 16.9448 0.970992 17.9641 5.76215 10.1887 -0.690437 
17503 6 16.5376 0.241409 18.5029 -20.0343 -8.61453 11.3547 
17472 7 17.0251 4.9949 15.1253 11.8586 2.29445 1.06624 
17583 7 15.5425 4.33546 18.1943 17.2299 10.4052 -1.19235 