ITEM: TIMESTEP
250000
ITEM: NUMBER OF ATOMS
25517
ITEM: BOX BOUNDS pp pp ff
-3.8959205201285124e-01 6.0088135642019459e+01
-1.9452389155355383e+00 5.9115524189537531e+01
-1.2206056431032383e+01 1.1390111600702880e+02
ITEM: ATOMS id type x y z v_stressx v_stressy v_stressz 
25292 7 5.89857 3.03966 7.5916 -2.47242 -8.45706 -6.11183 
25293 7 5.98077 1.53035 7.7064 -1.90098 -5.85881 -1.80057 
25252 6 5.35811 2.25094 7.51796 -6.33441 -3.28365 0.130468 
25287 5 0.61597 0.755495 10.7564 7.60798 -1.4893 3.3304 
25283 5 2.94291 4.2301 9.842 11.0009 6.31249 -12.555 
25281 4 1.3887 2.44216 9.07367 -12.7324 1.8623 -15.105 
25280 4 1.07853 5.00258 8.46007 -12.7792 -8.61809 -6.52751 
25277 2 1.45655 3.94107 9.49571 51.8791 35.5993 76.6431 
25215 5 2.99957 0.588718 9.72621 -14.4058 -10.0294 -10.9797 
25209 2 1.59287 0.935181 9.44522 9.06304 -59.0144 69.535 
25188 1 4.8243 2.58953 9.97468 5.49143 1.47803 13.8677 
25214 3 0.796635 0.0137284 8.44439 -2.34445 -4.9193 3.2582 
25282 5 0.520916 4.37471 10.6565 -15.2602 -14.5712 -16.9187 
25458 9 1.40812 -0.435335 7.83607 0.0152358 2.15781 1.77496 
25206 1 4.52732 -1.17961 10.115 34.766 38.0216 19.3818 
22660 5 6.52822 0.875659 10.2203 -1.05093 -5.63201 -15.9237 
22735 5 6.623 4.87348 10.5536 2.26166 -9.25108 -15.2011 
25505 7 1.83983 5.65447 5.50835 -0.0568149 -0.165998 -0.298204 
22662 3 7.17647 4.29529 8.22411 -12.1731 -23.2576 -18.5196 
22658 3 7.30314 0.346889 7.89736 -15.0039 -15.3689 -11.8007 
22905 9 7.65252 -0.485879 7.46068 0.0236423 -0.412352 -4.47383 
22906 9 7.50322 4.57024 7.35908 -2.73366 4.34589 9.70357 
20115 7 11.1372 2.292 6.49758 0.44485 -0.00430093 -1.17053 
22656 2 7.7059 0.365729 9.40584 22.2939 74.2588 62.0339 
20116 7 12.1136 2.88755 7.40659 19.6667 6.72591 2.62453 
20078 6 11.1398 2.86581 7.23657 -15.9395 -11.6936 1.98968 
20106 3 13.741 4.72985 7.46261 -15.8711 -11.0237 42.1454 
22657 2 7.60419 5.1024 9.41016 54.6447 -15.8378 23.271 
20036 3 13.619 0.47741 7.57109 -16.6357 -19.6901 16.5632 
20107 4 13.6664 2.6833 8.8298 -17.8137 -14.1633 -33.8374 
20104 2 13.8784 4.18168 8.97251 31.3538 36.3745 93.2233 
20031 2 13.7132 1.1448 8.96008 61.9442 164.523 14.4218 
20108 5 12.6966 4.70757 9.81807 14.8273 11.9422 2.02123 
20112 5 12.4932 0.846951 9.91178 10.9882 -0.40544 5.78772 
22654 1 10.4859 2.78478 9.68506 11.5177 10.463 11.2437 
22661 5 9.03983 1.11007 9.56315 -7.59751 -6.53104 -16.2515 
22663 5 9.10858 4.7108 9.73761 4.22051 -12.7984 -15.402 
22563 1 10.886 -1.13469 10.1589 -0.224785 -0.465593 -17.6251 
22659 4 7.7627 -1.12896 9.68153 -9.29508 -34.8024 -34.497 
22629 6 11.3751 -1.065 7.76545 -16.8155 5.03484 2.58751 
22669 7 11.9249 -0.207968 7.44815 1.29892 5.22005 -1.31049 
20352 9 13.8605 1.22514 6.87465 0.748558 12.553 14.6323 
20189 7 14.2777 3.18994 6.51456 0.320573 13.5357 8.3697 
20353 9 14.543 5.23857 7.22704 7.77029 13.2037 16.8121 
20148 6 14.5671 2.45013 5.87332 0.143007 0.0566361 0.0985422 
22740 7 11.2703 5.5881 6.8279 3.29489 1.48531 -1.15602 
22738 7 8.76742 5.41578 5.90114 -0.681205 0.707289 -1.33833 
22701 6 7.85394 5.37142 5.69312 0.467302 -0.341043 7.84017 
22739 7 7.886 4.86164 4.87022 -0.0110374 0.020393 0.00861775 
22670 7 11.9327 -1.89861 7.72342 1.06578 1.6522 -5.29643 
20188 7 15.4435 2.20345 6.22553 0.817915 -0.134079 0.071624 
20037 5 15.0057 0.565552 9.66218 -0.919145 -7.00346 -12.9918 
20118 7 17.8719 2.63796 7.70159 5.64354 -0.324974 -2.97577 
20117 7 17.6995 1.17882 7.44002 3.00414 2.56446 -4.79636 
17799 9 19.455 -0.241526 7.33338 0.313776 6.61224 17.9094 
20077 6 17.1284 2.01775 7.60787 -23.1823 2.30244 27.0305 
17484 3 19.536 4.02271 8.03155 -4.22449 -2.57405 -2.30173 
20109 5 15.1822 4.68195 9.53593 -5.84888 -7.39278 -16.9917 
17480 3 19.3808 0.510653 7.95906 -16.3758 -31.9633 11.425 
17478 2 19.7385 0.13463 9.405 33.0037 34.9222 47.0642 
17479 2 19.7269 4.90401 9.32133 47.1646 113.57 59.7541 
17485 5 21.0972 4.45706 9.83859 4.92984 -15.9072 -16.1146 
17483 5 21.125 0.57616 9.92672 5.21858 -10.0628 -13.033 
17482 5 18.7273 0.612358 10.4453 0.63224 -3.77906 -6.47983 
17560 5 18.5746 4.39351 10.2378 -1.07574 1.75833 -11.3255 
20011 1 16.7883 2.43064 10.1919 50.1158 45.8556 41.6272 
20028 1 16.5417 -1.33752 10.1131 23.854 17.4165 10.0613 
17481 4 19.613 -1.37684 9.30614 -12.4213 -19.5958 -37.7556 
17800 9 20.2785 3.41394 7.96437 0.325608 -2.88918 -5.46515 
20002 6 16.2002 -1.21507 7.53432 -10.4746 -7.5673 13.8546 
20044 7 15.5857 -0.449442 7.68688 4.38564 8.61981 -2.95587 
20043 7 16.3516 -1.12082 6.60323 0.283913 0.202304 -0.843998 
17377 6 19.8786 -1.6773 6.3322 0.246717 -0.13967 -0.0177148 
17415 7 20.5742 -1.92657 6.98281 2.87894 2.48704 2.12117 
14864 7 23.6314 3.83266 7.75133 5.58374 -4.67947 -1.44281 
14825 6 23.2988 2.969 7.82153 -9.28642 -3.83878 1.37172 
14863 7 24.1611 2.53617 7.90018 3.86699 -1.31349 -0.579423 
17476 1 22.5994 2.5974 10.2549 -65.3147 -40.8743 60.8962 
14928 3 25.5679 4.59148 8.20809 -31.349 -50.0404 -46.3861 
15246 9 24.7065 0.00657495 8.04332 7.96455 10.8035 20.0654 
14856 3 25.5405 0.383335 8.16649 -12.5748 -14.8705 10.6353 
14929 4 25.6618 2.47021 9.27814 -17.8629 -35.178 -33.817 
14851 2 25.7726 0.935136 9.6021 20.1887 -188.978 74.2495 
14926 2 25.8313 3.99121 9.61155 28.8579 145.599 87.2462 
14857 5 27.172 0.513951 10.0212 -9.57669 -11.8558 -20.216 
14931 5 27.2703 4.30837 10.1061 -28.1986 -11.3729 -17.1513 
14832 1 28.9014 2.41808 10.4207 15.1895 12.2692 54.9489 
14930 5 24.8007 4.37565 10.6576 12.5286 -4.42533 -12.4289 
14934 5 24.7275 0.511689 10.6576 4.46488 -4.06409 -0.597627 
17384 1 22.8636 -1.16741 10.5973 -0.736731 4.08144 -1.23666 
14848 1 28.7231 -1.43222 10.2624 14.9836 19.0174 -7.99807 
14898 6 29.1786 2.45721 7.88738 -13.8088 -15.3543 5.80695 
15247 9 26.3681 4.66526 7.72718 -1.61387 -1.09053 -15.2983 
14826 6 28.1456 -1.3901 7.71182 1.26727 -3.58568 26.6459 
14861 7 27.5228 -0.59177 7.7367 5.01733 5.89223 -2.17554 
14862 7 28.7608 -1.17174 6.9734 0.155461 0.0385313 -0.0630715 
17565 7 23.8543 5.62398 7.62904 12.5054 3.75195 -1.57852 
17491 7 23.3409 -0.830267 7.25909 0.0974969 0.0712316 -0.444583 
12347 6 29.4782 5.3719 8.00631 -15.3355 -7.2328 3.86765 
14939 7 29.2544 3.33895 7.63004 0.455595 -0.928765 -1.16834 
17492 7 24.1978 -1.77871 8.08715 8.21512 2.42567 -6.29535 
17450 6 23.2929 -1.42611 8.02021 -21.585 -6.86314 19.127 
25291 7 5.22591 6.53661 7.32751 1.20386 1.64571 -3.14235 
25290 7 3.82687 6.55555 6.86919 -0.67851 1.6399 -4.3266 
25253 6 4.33607 6.71227 7.63615 -9.72689 -11.5331 1.91931 
25517 7 1.84279 7.29014 5.50902 -0.0252142 -0.0589895 -0.550166 
25313 6 1.21101 6.45671 5.78137 6.02663 -5.06313 30.1026 
25362 7 1.19888 10.608 6.31952 -0.014044 0.00457004 -0.0227932 
25275 1 4.36027 6.50413 10.1833 4.35516 13.2018 10.1371 
25278 8 0.639374 6.49188 7.63496 52.9896 31.5113 10.3912 
22958 9 3.89074 10.3239 7.2783 -3.45858 1.53573 0.281219 
22732 3 4.70032 10.3548 7.96195 2.36158 -12.6893 13.8046 
25359 5 0.701437 8.49354 11.0939 -10.0998 -10.4265 -16.306 
25356 5 3.08021 12.146 10.2169 9.62243 -0.117695 -13.5501 
25355 5 0.535314 12.2845 10.6518 -2.60744 -5.61774 -8.16971 
25354 4 1.48185 10.2856 9.54639 -13.4582 13.476 -26.9842 
25353 3 1.39194 12.6945 8.41831 -17.4319 -10.1081 1.98853 
25351 2 1.63225 11.8296 9.72046 38.6176 48.8951 68.055 
25286 5 2.93236 8.28049 10.0288 -5.49086 -15.9932 -18.5868 
25285 4 0.892127 7.85648 8.74192 -20.6783 -18.4545 -4.56578 
25279 2 1.49492 8.71367 9.83417 15.6859 97.0477 74.4353 
25259 1 4.86194 10.2149 10.3927 8.27699 9.37274 60.2494 
25327 6 1.60703 9.7444 6.34125 2.30117 1.14897 -0.905437 
25363 7 1.38635 9.50649 7.2315 0.523021 2.8904 1.58072 
22807 5 6.5607 12.2849 10.8694 -15.6491 -14.5758 -17.642 
22730 5 6.65234 8.34528 10.5398 -4.9328 -14.8225 -14.0602 
22726 8 6.48614 10.4372 7.49213 -1.60149 18.0106 -26.1972 
22761 6 7.05704 10.8316 5.66761 1.7468 2.49028 6.81946 
22733 4 6.9844 11.7221 8.61372 -10.8936 -12.6743 -2.65789 
15278 9 27.5109 28.4452 16.2515 -3.13902 14.3618 71.791 
22728 4 7.23016 9.05362 8.29312 -12.9361 -20.3219 -5.59829 
22953 7 7.91026 10.1976 5.3838 -0.0661058 0.100772 -0.651691 
22965 7 7.33207 11.8331 5.45166 -0.0478339 0.141963 -0.277212 
22741 7 11.5 7.01103 7.05421 2.61842 -0.0263356 -1.52556 
22700 6 10.8104 6.36788 7.23855 -16.2009 -2.12594 18.2745 
22636 1 10.9188 6.69179 9.82281 3.85321 8.97477 11.8784 
22729 4 7.48133 6.61374 9.11192 -11.3614 -8.47983 -27.4893 
22668 7 10.5831 8.59932 7.42923 1.93388 4.37765 -3.15305 
22725 2 7.70374 8.13304 9.39568 27.7792 32.0104 97.4256 
22727 2 7.53968 12.6129 9.75953 16.8675 133.571 81.6774 
22630 6 10.7174 9.56513 7.55044 -8.24583 0.662492 5.23779 
22667 7 11.6785 9.56 7.58776 1.27918 0.745008 -1.30394 
20110 3 13.3722 8.00482 7.87861 -11.0453 -1.16602 -3.88513 
20176 4 13.3404 12.979 8.33811 -6.58819 -6.97204 -4.18939 
20177 4 13.5478 10.5013 8.95979 -6.31826 -0.370162 -16.6131 
20173 2 13.7057 11.9908 9.40771 33.7535 -4.35025 78.5353 
20105 2 13.7244 8.93675 9.12343 -1.54555 6.71129 85.7354 
20178 5 12.5598 12.2564 10.4158 -7.79349 -12.8039 -22.5373 
20183 5 12.8988 8.51128 10.3587 -3.72643 -11.0657 -6.65825 
22734 5 8.97942 12.4092 10.1072 -12.3315 -12.6067 -17.5235 
22723 1 10.5486 10.4168 9.97488 -3.03663 4.16909 10.1206 
22731 5 9.11607 8.33188 9.85191 -15.7697 -24.4766 -22.3463 
20354 9 13.8366 7.1662 8.02076 -1.08494 -12.277 -25.3337 
17489 7 15.3685 7.53149 7.27379 -6.20253 -2.25855 -3.75677 
17490 7 16.4114 7.08597 6.51817 -0.225211 0.0341929 -0.311204 
17451 6 15.9423 6.78743 7.29642 -18.7607 -17.2855 17.4296 
17555 4 19.5148 6.40419 9.24816 -10.8771 2.32796 -18.2963 
20102 1 16.4765 6.46221 9.86905 11.1342 0.587412 18.4708 
20179 5 15.0791 12.3713 9.86379 2.59247 3.64864 -11.7842 
20111 5 15.0953 8.51182 9.52882 -26.4132 -13.7446 -14.6712 
17802 9 19.4832 11.878 7.51898 -0.10552 -0.0967202 0.176793 
17554 3 19.6317 8.68088 7.9737 -1.91494 -5.34268 6.08244 
17801 9 19.3812 9.57046 8.10065 0.664153 12.1874 6.42134 
17558 3 19.3121 11.5602 8.35726 -4.23844 -2.13602 -0.704743 
17552 2 19.7279 7.97853 9.40881 25.614 58.0349 59.1914 
17553 2 19.7446 12.5897 9.5152 42.4424 43.0039 66.6503 
17559 5 21.2085 12.1329 9.83297 6.88496 -0.488889 -10.461 
17557 5 21.1128 8.33065 9.93016 0.902242 -11.5547 -15.5656 
17556 5 18.49 8.44005 10.194 12.5571 -3.67138 -7.57224 
17631 5 18.754 12.2185 10.6826 2.08657 -5.58114 -3.54619 
20084 1 16.8199 10.2664 10.3615 -11.2942 -4.48319 -0.949875 
17566 7 22.7737 6.49197 7.09029 0.0938856 0.018311 0.0516975 
17525 6 23.2369 6.30614 7.97014 -29.8494 -5.95262 17.4405 
15249 9 26.4199 12.3989 7.50271 0.843584 0.687124 0.252822 
14924 1 28.8784 6.30371 10.2599 24.9278 20.6002 -2.89743 
17459 1 22.8153 6.36449 10.4136 -83.6037 -67.9355 31.4291 
17550 1 22.6813 10.1773 10.109 18.9117 17.7988 8.572 
15248 9 25.0074 7.30471 8.25379 6.72638 8.89305 8.68723 
15002 3 25.5553 12.1132 7.86039 -4.82226 -8.80913 8.91521 
14932 3 25.8534 7.69566 8.37038 -4.66779 -4.2239 1.37432 
15003 4 25.6929 10.0578 9.40228 -9.10745 -5.93118 -22.789 
15000 2 25.8234 11.5586 9.33827 29.5603 103.173 70.9162 
14927 2 25.9265 8.52626 9.67582 40.3179 66.6103 70.7425 
15005 5 27.2586 12.0307 9.65026 -1.74078 -12.8775 -16.8891 
14933 5 27.3368 8.19806 10.2714 9.50575 -13.9002 -17.043 
15004 5 24.794 12.1885 10.2281 1.12945 3.16121 -12.1071 
14907 1 29.0423 10.186 10.3202 23.2755 18.5561 21.1966 
15008 5 24.7476 8.17989 10.6591 15.7204 -0.148328 -2.38038 
14899 6 29.4402 9.94521 7.67407 -3.25595 0.0297204 5.23742 
17637 7 24.0129 13.1402 7.48134 1.61136 0.650894 -0.177979 
25427 5 0.471403 16.2254 10.9577 6.02805 -3.70733 -4.71345 
25424 5 3.05777 19.7432 10.2643 -15.0536 -6.38895 -9.01718 
25423 5 0.62854 19.9386 10.7649 3.98002 -4.39003 -9.79926 
25422 4 1.53223 17.8586 9.5283 -9.97908 7.11395 -14.6185 
25421 3 1.35286 20.1653 8.46116 -3.2556 -2.60535 -0.18036 
25419 2 1.68921 19.4163 9.80763 -40.3909 140.078 63.5311 
25358 5 3.0433 15.9649 10.3935 5.89014 -1.19854 -11.6451 
25352 2 1.62447 16.359 9.9389 58.2069 2.52064 39.1046 
25333 1 4.76049 17.9652 10.8964 -5.14755 13.0513 -10.199 
25357 3 1.27516 15.4524 8.77037 -12.5463 -16.8014 17.4021 
25460 9 1.6173 15.8283 7.87293 0.108797 0.36321 4.18666 
25349 1 4.58657 14.1062 10.6957 7.09048 16.4967 -12.2151 
22803 5 6.49129 16.0975 10.8756 1.55411 -0.299801 1.25913 
22875 5 6.46084 20.071 11.1158 20.1709 7.8563 14.0807 
25459 9 1.48999 13.6574 8.56205 -1.42072 3.87355 -3.76357 
22801 3 7.03055 16.5942 8.55987 -2.25577 -6.98024 3.96319 
2179 7 -0.387305 20.8468 8.22815 14.4287 2.32063 -6.26709 
22805 3 7.32975 19.3599 8.91011 -8.55726 -8.6547 26.2252 
22908 9 7.54595 19.9046 8.12021 0.00928712 0.259593 6.53887 
22774 6 7.84223 14.1301 6.46407 2.00916 1.26799 1.92394 
22907 9 7.21638 17.5067 8.66763 -0.0629763 20.2685 1.78796 
22800 2 7.69826 20.1918 10.1825 71.829 58.2877 35.3838 
22810 7 9.52718 17.6319 7.67339 -2.04654 0.955455 -1.98759 
22775 6 10.3724 17.5576 8.1234 -18.0353 -9.08418 6.51168 
22811 7 11.0269 17.744 7.42304 6.0894 1.06735 -1.20424 
20249 3 13.6146 20.1923 8.5115 -17.4502 -16.0434 20.2445 
22799 2 7.50164 15.6895 9.76752 1.68021 21.4768 71.5382 
20181 4 13.1648 15.598 8.7498 -9.72392 -32.1208 -12.4172 
20250 4 13.59 17.8559 9.69511 -13.8334 6.72906 -28.0319 
20247 2 13.6446 19.4223 9.89672 2.85372 29.5754 70.1649 
20175 2 13.7411 16.3389 9.95052 45.2141 115.982 89.6662 
20255 5 12.7826 16.0392 11.1348 -2.38975 -10.9336 -15.5348 
20251 5 12.5994 19.887 10.8751 -0.562841 -0.442591 3.93066 
22797 1 10.5866 17.8329 10.6706 3.93983 -1.44707 25.7031 
22804 5 8.85928 16.0465 10.2629 -4.65958 -11.0151 -14.0352 
22806 5 9.15709 19.6726 10.6518 26.2645 -12.6557 -11.3874 
20209 6 12.874 15.0323 5.7533 0.472195 -0.369766 1.55972 
20174 8 12.7095 14.4625 7.54514 27.4703 11.0446 -53.722 
22802 4 7.35344 14.1712 9.46207 -20.9249 9.24068 -29.6728 
22707 1 10.7485 14.2517 10.2767 12.4031 10.6656 -2.13004 
20180 3 10.8086 14.0423 7.95232 18.1861 -8.92077 4.81634 
20260 7 13.0324 18.8856 6.99744 0.139594 1.33866 1.25478 
20261 7 12.9162 17.3666 7.33817 -0.493185 10.6861 5.62343 
20401 7 13.4229 15.9899 5.62814 -0.160485 0.313803 -1.28922 
20406 9 10.0189 14.4108 7.4707 -1.27115 2.8634 -2.35808 
20413 7 11.9327 15.1884 5.26927 -0.0683227 -0.0245955 -0.439846 
20222 6 12.7014 18.0477 6.67459 -0.7592 0.69798 -0.960225 
22813 7 7.7456 15.0607 6.62462 -0.070401 -0.0488558 0.0623973 
22812 7 7.44152 13.8113 7.30537 0.751504 1.44757 6.51364 
17861 7 18.0327 18.1656 5.18632 -0.0413367 -0.0256626 -0.195171 
17849 7 19.1146 19.332 5.5722 -0.0515207 0.153117 -0.565363 
17657 6 18.7692 18.3451 5.88217 -4.91103 -2.69009 15.1897 
20252 5 14.9691 19.7344 10.5394 -8.25641 -13.7608 -18.2131 
20182 5 15.2166 16.0409 10.213 -4.03187 -20.4198 -14.2339 
17622 8 18.5634 18.0799 7.75046 32.2979 27.9418 -13.9425 
17854 9 15.9449 18.6012 8.0719 -0.301976 2.03052 -3.24679 
17628 3 16.7563 18.0742 8.25458 4.03345 -10.0094 9.37065 
17624 4 19.3217 16.6826 8.46567 -7.80447 -11.5556 -3.83467 
17629 4 18.9827 19.4332 8.85904 -13.7503 -12.3426 0.782343 
17621 2 19.6951 15.6526 9.54627 46.1872 95.2774 80.3623 
17623 2 19.5501 20.2671 10.0023 53.786 25.765 76.3558 
17630 5 21.0316 19.7719 10.2793 12.4945 -2.46895 -15.3351 
17627 5 21.1919 15.89 9.96206 1.0411 -17.7974 -16.2873 
20155 1 16.8424 17.9752 10.6946 2.77729 10.5537 -9.73661 
17626 5 18.7672 15.8963 10.7355 -8.6072 -8.96988 -11.9357 
20171 1 16.7158 14.1373 10.3208 5.14139 6.388 -18.3446 
17625 4 19.606 14.0957 9.12525 -5.98699 7.85839 -11.5112 
17564 7 21.4906 17.2833 7.58657 -0.576981 1.57459 -1.21572 
17703 5 18.6795 20.0258 11.2014 -15.1572 -12.3273 -20.805 
17709 7 19.905 20.6273 7.34679 2.93453 4.9718 4.24274 
20259 7 15.568 20.8847 8.4035 12.1799 3.5138 -2.43669 
17526 6 22.4132 17.452 7.70597 -7.63583 -6.7285 17.9592 
17563 7 22.8092 16.6576 7.3521 0.264524 0.360202 -1.9115 
17619 1 22.5682 17.9268 10.3236 11.2224 12.7297 -48.4652 
15250 9 25.4259 16.554 7.3496 3.2554 4.21469 70.5657 
15006 3 25.6058 15.7572 7.92658 -17.3261 -12.3788 54.8708 
15072 4 25.3173 20.4252 8.40544 -13.0434 -7.99023 -3.2903 
15073 4 25.9599 17.9542 9.15621 -15.7491 6.12853 -35.1295 
15069 2 25.8295 19.4844 9.52152 46.7606 197.083 68.7634 
15075 5 27.2671 19.8707 9.91392 4.90454 -4.37501 -14.9238 
15001 2 25.8934 16.4473 9.39988 31.297 22.221 33.2318 
15007 5 27.2951 15.9854 9.7832 -0.450277 -10.4561 -15.7395 
14980 1 29.1857 17.8209 10.1444 -13.0362 -20.891 16.1206 
15074 5 24.8028 19.6389 10.6176 -5.94851 -5.26188 -19.0663 
15079 5 24.8396 16.1163 10.4638 8.5385 -3.46517 0.607722 
12533 7 25.4571 18.3754 7.23091 -0.33321 4.47899 6.10931 
17532 1 22.9834 14.1035 10.1761 9.84282 12.2826 8.454 
14998 1 28.6373 13.9834 10.0874 20.0751 25.0264 13.229 
12492 6 25.1645 17.9196 6.43544 -1.2811 -1.72147 -0.920825 
12532 7 24.2391 17.8074 6.45162 -0.0690261 0.0126068 -0.227644 
17636 7 24.2982 14.6547 7.77674 3.14936 -4.67258 -4.47096 
17597 6 27.3956 19.7327 6.47718 -16.4349 -1.07293 1.03242 
17635 7 27.0344 19.9354 7.31032 6.37911 1.20244 -2.32001 
17596 6 23.5563 13.9987 7.66239 -11.4192 -1.59672 4.48865 
14974 6 28.7308 14.0837 7.53935 -5.81101 -10.983 7.04419 
17634 7 26.9707 18.9124 6.11254 0.290332 0.569933 -0.154016 
15084 7 28.6931 18.2675 6.90767 0.597401 2.77258 -1.52492 
15012 7 28.1952 14.867 7.30744 1.78132 1.80835 -1.69794 
15044 6 29.2899 17.8272 7.55162 -18.4678 -15.3938 14.0443 
15011 7 29.5706 14.1102 6.99075 5.05712 0.882451 -0.242582 
25461 9 1.63963 21.1191 8.56579 -0.40777 9.04884 -5.94191 
25417 1 4.459 21.7465 10.9217 -17.3714 -20.122 -20.6737 
24923 5 0.754769 27.5218 10.9484 5.81653 1.74992 -1.8589 
25425 3 1.35108 22.98 8.77836 -10.6827 -8.31684 18.5443 
24927 5 0.559259 23.61 11.1153 15.4338 -1.76219 7.49246 
25426 5 3.10363 23.8017 10.4009 3.65862 -9.63044 -9.07404 
25420 2 1.64879 23.9265 10.0018 35.7549 98.4274 57.0635 
25401 1 4.97038 25.5329 10.7242 11.013 5.24093 -7.26407 
24924 5 3.18735 27.1766 10.4054 -6.07302 -6.06408 -13.7356 
24922 4 1.38256 25.4386 9.75254 -16.5096 10.2568 -16.6088 
24919 2 1.7823 26.9563 9.95451 1.37079 144.691 60.0027 
24921 3 1.55556 27.7248 8.56562 -3.25366 -0.931389 8.39983 
25462 9 1.60156 23.3783 7.96981 -0.0547863 0.117492 1.81543 
22871 5 6.64021 23.6959 10.9095 4.62208 -4.89421 -5.16954 
25451 9 2.36751 27.8615 8.13061 0.0539187 0.482387 1.55356 
22375 5 6.78156 27.3777 11.2762 1.86699 -3.9862 -4.32761 
20355 9 13.7553 21.1037 8.67011 -2.66377 21.2997 -1.08647 
22873 3 7.36095 26.8242 8.94079 -1.80144 -2.8905 22.3513 
22910 9 7.83453 27.1872 8.16884 0.0177562 0.30187 5.20915 
22881 7 10.5673 22.2037 7.78641 0.178832 0.149454 -0.604641 
22880 7 12.0072 21.7432 8.22322 12.0891 4.42637 -4.70818 
22869 3 7.56442 24.0265 8.5961 -0.861531 -1.30834 0.767112 
22842 6 11.0399 21.8185 8.50693 -11.6867 -8.59639 2.97604 
22909 9 7.42422 24.9915 8.72358 -0.280738 9.51715 -0.614634 
22870 4 7.80675 21.6814 9.76784 -9.96136 13.0268 -14.2956 
22781 1 10.8959 21.6885 11.0129 -25.5038 -19.2423 23.2239 
22868 2 7.76545 27.7412 10.1816 38.6643 97.8645 40.232 
22867 2 7.78902 23.2324 9.92461 54.6651 190.338 73.417 
22381 7 12.0152 26.341 8.4485 11.0644 9.23529 -1.37169 
20253 3 13.4682 23.4016 8.82795 -29.1348 -27.6232 7.58359 
22380 7 10.8121 26.2531 7.54966 0.0746947 0.106344 0.100716 
22342 6 11.2091 25.8188 8.3988 -19.399 -2.80531 29.7621 
20317 3 13.3219 27.8427 9.08682 -10.2299 -13.2642 -8.69291 
20248 2 13.7696 24.0294 10.2263 7.94134 3.79971 108.589 
20318 4 13.624 25.5447 10.0164 -29.1425 -19.1679 -43.1569 
20315 2 13.7788 27.0543 10.3348 51.7845 -14.2943 81.7678 
22865 1 10.6865 25.3992 10.9226 12.6589 11.3073 27.7811 
22872 5 9.17462 23.6871 10.462 5.31876 -15.6248 -14.2125 
22874 5 9.24947 27.6706 10.5948 6.61369 -9.70628 -9.9832 
20356 9 12.5954 23.6209 8.49206 10.2739 3.87447 -9.9982 
25431 7 14.1509 26.52 7.83751 1.07085 4.74617 6.75608 
20323 5 12.8525 23.6161 11.429 2.02997 -7.92736 1.11716 
25430 7 14.093 24.9955 7.86813 1.68113 4.76319 10.4708 
25395 6 14.4016 25.7329 7.27378 -0.14011 0.0903538 -0.164093 
20258 7 15.2294 22.3163 8.12146 1.34916 0.124856 -1.47264 
20223 6 16.0015 21.7513 8.2238 -7.31995 -1.21721 9.20432 
20245 1 16.5342 21.695 10.8038 16.508 20.9285 39.5141 
17698 4 19.4354 21.7483 9.56107 -12.0958 -3.89304 -29.407 
20320 5 15.2214 27.4242 10.856 4.35786 -11.126 -14.7092 
20254 5 15.1801 23.5949 10.561 -16.068 -11.4791 -20.4839 
20329 7 17.2434 26.6466 8.28058 4.02805 3.22047 -3.55612 
20328 7 16.0419 25.8023 7.61998 1.70883 -0.013679 -0.0805438 
17803 9 18.6355 24.4714 8.19816 9.14988 9.20213 -0.650225 
20290 6 16.6573 25.8385 8.42977 -27.3325 -4.74243 7.87763 
17697 3 19.4666 23.9299 8.24968 -7.47614 -15.4114 7.48957 
17701 3 18.7572 27.5768 9.07536 -11.5476 -29.6667 -4.29307 
17695 2 19.6311 23.298 9.64847 1.67147 5.43998 81.2656 
17696 2 19.6976 27.9701 10.2409 34.3947 100.421 92.1643 
17700 5 20.9899 23.6351 10.1729 -17.5634 -7.65006 -19.2043 
17702 5 21.0953 27.3466 10.1236 7.73662 -13.4887 -20.7727 
17699 5 18.7076 23.7838 10.7613 -3.13674 -4.37894 1.20794 
20229 1 17.0048 25.6018 10.9426 18.4199 14.9795 -12.8227 
17708 7 20.0702 22.1005 7.0657 -0.233999 1.40868 0.709748 
17670 6 20.1319 21.2549 6.64674 -0.761656 0.832001 -1.17975 
17707 7 20.7868 25.2363 7.6314 4.67802 4.91246 -0.119875 
17706 7 21.1787 26.5559 8.43819 0.142926 6.51381 6.85702 
17671 6 21.5933 25.7538 7.94146 -0.35994 -4.77746 5.47569 
17804 9 18.1596 28.2261 8.79174 4.32318 -0.331339 -2.8982 
15302 9 22.12 22.0167 7.2663 -10.7638 2.29684 -0.726427 
15082 7 28.9341 21.4367 6.98265 -0.118558 1.91141 -3.05078 
15309 7 26.1711 21.1856 5.56242 -0.0506182 0.354192 -0.582527 
15297 7 25.7773 22.9358 5.36905 0.0253137 0.422287 0.0399066 
15076 3 22.8653 21.7306 7.945 5.1745 -10.329 6.88214 
15105 6 25.4296 21.9972 5.7434 2.49243 2.78805 8.77626 
15067 1 28.5009 21.8246 10.3102 7.81984 14.6616 32.9903 
17603 1 22.8719 21.8054 10.3091 41.8513 31.2506 60.4663 
15070 8 24.6898 21.8654 7.53391 8.76219 22.0215 -5.82421 
15157 7 24.761 24.7113 6.5409 0.108619 1.44879 -2.29152 
17693 1 22.4585 25.6458 10.3024 35.4308 46.9397 55.5761 
15118 6 24.3516 25.0692 5.80024 0.214826 -0.0182093 -0.0780952 
15156 7 23.4675 25.4068 6.08223 0.34872 0.0666939 -0.0166516 
12750 9 28.7793 27.0604 8.02173 -18.1548 -1.27712 -3.43496 
15145 3 25.8709 28.1424 8.32624 -25.2976 -10.1475 24.1967 
15077 4 25.2347 23.1977 8.50469 -14.8268 -21.7559 -11.9738 
15146 4 25.5466 25.6818 9.29943 -7.90333 17.8067 -16.2922 
15143 2 25.8227 27.2278 9.63665 34.2925 58.3736 42.7526 
15071 2 25.6377 24.1622 9.58877 43.0808 137.548 72.3288 
15078 5 27.0823 23.775 9.8664 3.48636 -1.47627 -12.4525 
15148 5 27.2019 27.5255 10.2775 11.2062 -13.4652 -15.9282 
15051 1 28.9278 25.6837 10.4438 0.477937 12.9452 50.1655 
15147 5 24.7278 27.7419 10.5663 3.77817 -2.00887 -8.09828 
12524 3 29.1596 26.0649 8.01414 -11.273 -1.36553 8.73671 
15045 6 29.2043 21.7754 7.82857 -18.525 -10.9626 5.27576 
15251 9 25.5134 27.6474 7.63837 -0.0734025 -0.28421 15.519 
15151 5 24.6677 23.8201 10.7274 -5.08816 -8.2203 -15.9563 
25272 7 0.414807 4.51275 16.1255 2.75445 -2.86735 12.7485 
25198 5 4.5419 2.55475 12.6561 -17.2903 -9.52176 -10.4237 
25195 5 4.3158 -1.09258 12.7632 -2.14626 -3.43098 3.42864 
25511 9 0.4642 2.27115 15.2874 -27.4357 -10.9791 -4.85345 
22635 1 6.05896 0.692999 12.8525 -23.1609 -5.82743 -7.01377 
25268 5 2.06322 2.89899 12.9931 -0.698263 -12.7442 -24.3925 
25258 1 0.250924 4.4912 12.7638 -3.14507 -6.16728 -0.202913 
25207 1 0.476342 0.786529 13.0733 12.7192 34.6681 19.3896 
25191 2 3.47612 3.03985 13.5769 20.6506 170.214 54.5909 
25263 4 3.57926 4.53329 13.9916 -26.6331 14.1279 -33.9885 
25197 4 3.26023 2.0922 14.7531 -17.2589 -29.5666 -15.3048 
25192 4 3.04502 -0.482259 14.848 -6.96144 -23.4182 -8.00272 
25196 3 0.759054 1.28703 15.2781 -4.25335 -11.9242 2.05123 
25190 8 2.52911 0.85095 15.8285 -24.0916 -24.2977 -44.2503 
25240 6 3.14872 0.87624 17.6539 11.4607 -27.6044 -4.45646 
25519 7 3.31627 -0.0784031 18.1406 1.59934 9.86328 -24.2992 
25507 7 3.97506 1.46387 17.9772 11.6044 7.37224 -8.73731 
22649 6 3.90083 3.94633 16.7278 -30.1714 0.8299 -48.1781 
25308 6 -0.085591 4.52095 15.247 -40.7993 -2.0638 5.48641 
25270 6 1.37338 4.29248 17.719 -49.2546 -1.02614 -10.179 
25310 7 1.766 4.53419 18.5698 0.431207 2.14511 4.17951 
22655 1 6.37544 4.67075 12.8239 -1.98505 5.69019 -3.50031 
25194 5 1.89442 -1.62182 13.1754 -0.0856557 -14.9584 -19.8767 
25189 2 3.31878 -1.5892 13.8009 41.0557 237.263 99.4688 
25309 7 2.12676 4.17769 17.1218 9.7517 0.407782 -5.20936 
22683 6 6.45502 0.854003 15.4187 -17.0354 -15.4709 1.16045 
22684 7 3.87534 3.40051 15.9069 -1.88925 -4.80631 9.42808 
22644 3 6.8656 4.33342 15.204 25.6286 -16.8806 7.37825 
22759 7 4.49338 4.50246 18.233 6.11946 0.724717 10.8773 
22959 9 6.2378 4.21791 15.9857 -19.91 6.5133 -5.12056 
22685 7 3.91106 4.8636 16.3278 -1.02906 3.99062 2.73976 
20062 7 6.0925 1.69884 18.5307 -0.37309 4.46034 -5.72515 
20061 7 5.92332 3.14478 17.9244 8.85711 26.8955 -2.13602 
22650 7 6.33073 1.54273 16.1303 1.6707 -3.61548 10.6021 
20023 6 6.41891 2.23873 17.8251 -15.5306 5.17112 -23.7629 
25236 7 0.735171 0.907591 18.0062 12.7189 4.64034 1.16278 
22651 7 6.13775 0.122168 15.9127 3.23828 -8.74658 -3.8758 
25472 9 2.69804 2.41165 19.0144 -3.22801 5.69065 -27.6266 
22648 6 5.44451 -0.353372 19.029 -28.6537 -10.9659 15.2774 
22760 7 5.75028 5.5207 18.3394 1.67932 12.5892 2.26667 
22687 7 5.07753 -1.14439 18.6344 -3.44889 6.15107 -13.3048 
25201 6 -0.160533 0.763797 18.476 -5.88262 -15.9662 -0.0634795 
25311 7 -0.3676 4.37057 18.2296 6.1084 -0.123266 -7.92226 
22717 6 5.24107 4.78598 18.8984 -3.03399 -12.0318 15.4609 
25227 3 2.6458 -1.54124 19.1471 -11.7324 -20.5625 -13.6653 
20131 6 11.6044 4.30655 19.2631 -24.6503 -14.2652 -6.79452 
20022 6 13.6718 1.93352 17.4104 -16.5652 -17.4936 -32.8081 
20101 7 7.98256 0.510683 16.8676 5.84815 1.89803 3.71185 
22931 9 9.5616 -1.05408 15.7223 -2.17433 3.02633 -2.38433 
22643 5 10.3472 2.57234 12.1955 -2.84944 -3.77356 -9.23951 
20083 1 12.0539 4.57824 12.2941 18.9776 11.734 24.3292 
22642 5 7.78438 2.32799 12.6693 -1.63816 -8.40564 -22.198 
22572 5 10.3915 -1.19034 12.4814 -0.764985 -7.8548 -7.59029 
22647 5 8.01803 -1.15376 13.3887 10.7914 -14.8355 -18.8836 
20029 1 12.4935 0.818447 12.5759 0.741968 5.82952 -8.03049 
20095 5 13.8672 2.81253 13.0198 -20.7415 -12.5722 -18.2421 
22637 2 9.23854 2.21284 13.1776 49.526 53.7638 75.7717 
22565 2 9.47766 -0.798971 13.6553 39.4455 56.7287 58.0331 
22641 4 9.6135 0.790931 13.697 -32.3412 2.99417 -31.2191 
22640 4 9.10375 3.21619 14.2882 -14.0167 -20.6857 -10.3625 
20060 6 12.0576 1.0697 15.115 -25.4819 -6.82074 12.3474 
20025 7 12.235 1.13004 16.1005 4.63656 1.92533 7.10931 
22638 8 8.74428 4.4934 15.416 23.4626 27.2324 5.94362 
20024 7 11.1329 0.857179 15.1236 7.76354 3.15052 -0.719063 
22688 6 9.54708 4.43733 17.1555 -6.94868 -8.87422 23.5864 
20130 6 8.84442 0.218878 17.2098 5.9851 -3.25363 2.86953 
20016 5 13.8732 -1.10957 13.0216 4.18729 -14.2295 -19.7962 
20100 7 9.08699 0.868839 17.8757 -0.299472 3.62979 3.45502 
22967 7 9.32344 3.61573 17.8398 -0.481336 -5.41519 -4.46225 
22571 3 10.0242 -1.41532 14.9926 -24.9234 -19.5001 4.77895 
20064 7 14.3864 1.89965 16.7989 -9.22024 0.657279 -10.4481 
20063 7 13.2373 2.74268 17.1307 -1.2059 -0.661439 0.355972 
22918 9 9.02856 -1.17604 18.6211 2.44848 11.1882 46.2267 
20096 6 11.9433 0.133775 18.7134 -11.1849 -2.02585 -1.36218 
20135 7 12.6517 0.721588 18.2424 11.74 7.60516 -3.28351 
22919 9 7.7624 2.67966 18.7904 13.1396 4.00697 71.0309 
20366 9 14.5269 2.18659 18.9833 7.5346 5.07732 5.48136 
22955 7 9.33747 5.19658 17.8747 -0.622962 -5.32801 3.67844 
20098 7 11.1809 4.61112 18.4517 -1.33309 1.16165 -4.48661 
20134 7 12.5553 -0.563986 19.2493 3.07401 2.28807 1.21112 
2035 7 -0.361017 13.1082 8.13486 8.7389 2.13628 -3.50029 
22675 3 8.56582 2.80478 19.3539 -26.6295 -20.756 6.59392 
20051 3 14.7125 -1.49587 18.9092 -26.3371 -56.4273 -60.8562 
20379 9 16.2074 1.67372 15.1041 -44.3039 -39.8566 -68.5801 
20378 9 15.4007 0.0444891 14.8487 2.06584 43.3174 27.4619 
20012 2 15.2359 -1.61828 13.5115 10.0607 64.5557 76.7973 
17469 5 19.9364 -1.30131 13.4326 1.91242 -10.5671 -10.9266 
20017 5 16.2815 -1.21496 12.5395 9.31129 -0.353201 -6.5002 
20020 5 16.2894 2.4578 12.6312 -14.095 -7.78136 -21.1449 
17477 1 18.4308 4.50707 12.7514 37.0045 40.0307 57.5964 
17458 1 18.218 0.637135 12.871 40.8486 29.5877 10.8096 
17464 5 19.9587 2.61017 13.0923 -2.87154 -12.6064 -16.1264 
20014 3 15.3481 -0.927596 14.9324 -12.3748 -1.21255 25.3342 
20013 2 15.2355 2.86552 13.6686 25.2295 -32.3753 44.6832 
20089 4 15.4847 4.41259 13.8828 -22.7223 -24.8737 -25.8981 
17460 2 21.2934 2.30374 13.8302 71.2738 145.127 80.8793 
17386 2 21.2555 -0.760946 14.0881 55.1484 118.074 34.5663 
20019 3 15.3567 2.03256 14.94 -41.6151 -22.2116 -22.4374 
17466 6 17.7327 0.926476 15.4406 -38.4444 -28.7231 13.5816 
17494 7 17.4299 0.123835 15.7563 5.14601 -2.78196 -7.64199 
17493 7 18.2285 1.39053 16.1592 5.68006 8.19444 -2.811 
17471 6 18.8364 3.33349 16.7516 -42.6762 -15.9768 -6.15311 
17510 7 19.4456 3.53554 16.0314 18.2432 2.94873 1.63821 
17509 7 19.3611 2.79415 17.399 1.65464 3.22964 -3.61562 
17463 4 21.2166 0.803669 14.1626 -13.7063 12.7008 -27.0496 
17508 6 17.8174 5.15501 15.1874 -21.8377 -17.1506 6.02294 
17473 7 18.0614 4.87566 16.0826 2.9103 8.91833 -3.61052 
14959 7 21.0269 -1.01685 18.3833 2.10301 4.77471 4.04955 
14960 7 21.1922 0.573866 18.2282 -0.0778536 7.37251 0.348658 
17391 3 21.469 -1.48941 15.4294 -19.0518 -23.2341 3.85072 
17825 9 21.3258 -0.881655 16.1649 -1.50887 2.30922 76.7002 
17462 3 21.1307 3.22158 15.0308 -15.9554 -36.335 -10.6089 
14918 6 21.4507 -0.303672 17.8068 -23.3685 10.5057 -13.1266 
17826 9 21.2757 4.13027 14.832 -2.87082 -17.7313 -12.0204 
17544 6 16.8138 4.44699 18.4452 -17.59 -7.10874 3.44336 
17582 7 17.5227 4.21113 17.8139 5.72354 3.88348 -3.13008 
17456 7 16.203 -0.26208 18.721 10.0483 -3.08429 -3.01785 
17457 7 16.6548 1.14421 18.6881 9.77574 -2.77684 -1.28476 
17499 3 20.4491 2.46234 18.9538 -12.9843 -15.5225 -13.8909 
17503 6 17.0696 0.285052 18.7407 -11.7775 -6.14911 3.45734 
17472 7 16.854 5.21393 15.0203 -3.68916 -4.01167 -13.9591 