ITEM: TIMESTEP
210000
ITEM: NUMBER OF ATOMS
25517
ITEM: BOX BOUNDS pp pp ff
-3.8959205201285124e-01 6.0088135642019459e+01
-1.9452389155355383e+00 5.9115524189537531e+01
-1.2206056431032383e+01 1.1390111600702880e+02
ITEM: ATOMS id type x y z v_stressx v_stressy v_stressz 
25292 7 5.89857 3.03966 7.5916 -2.49694 -8.47063 -6.23824 
25293 7 5.98077 1.53035 7.7064 -1.90975 -5.88209 -1.88377 
25252 6 5.35811 2.25094 7.51796 -6.32153 -3.26724 0.213415 
25287 5 0.61597 0.755495 10.7564 7.42644 -1.70161 5.34231 
25283 5 2.94291 4.2301 9.842 11.073 6.37016 -13.2555 
25281 4 1.3887 2.44216 9.07367 -13.0494 1.7345 -15.9279 
25280 4 1.07853 5.00258 8.46007 -12.8291 -8.57869 -6.55367 
25277 2 1.45655 3.94107 9.49571 51.6181 36.3358 79.1112 
25215 5 2.99957 0.588718 9.72621 -14.4007 -9.99244 -11.408 
25209 2 1.59287 0.935181 9.44522 8.4848 -58.401 71.3147 
25188 1 4.8243 2.58953 9.97468 5.30351 1.41166 14.8883 
25214 3 0.796635 0.0137284 8.44439 -1.72943 -4.35598 3.26761 
25282 5 0.520916 4.37471 10.6565 -15.4079 -14.51 -18.6545 
25458 9 1.40812 -0.435335 7.83607 0.018477 2.10771 1.72699 
25206 1 4.52732 -1.17961 10.115 34.8094 37.9934 20.1578 
22660 5 6.52822 0.875659 10.2203 -1.3718 -5.54612 -15.7018 
22735 5 6.623 4.87348 10.5536 2.25394 -9.35384 -14.964 
25505 7 1.83983 5.65447 5.50835 -0.0564501 -0.163657 -0.296837 
22662 3 7.17647 4.29529 8.22411 -12.0412 -23.3524 -18.2527 
22658 3 7.30314 0.346889 7.89736 -14.9739 -15.2388 -11.314 
22905 9 7.65252 -0.485879 7.46068 0.0221293 -0.414988 -4.48423 
22906 9 7.50322 4.57024 7.35908 -2.76252 4.33495 9.54085 
20115 7 11.1372 2.292 6.49758 0.444904 -0.00558631 -1.15444 
22656 2 7.7059 0.365729 9.40584 22.5851 73.9144 61.119 
20116 7 12.1136 2.88755 7.40659 19.6293 6.70261 2.37153 
20078 6 11.1398 2.86581 7.23657 -15.848 -11.6532 2.11784 
20106 3 13.741 4.72985 7.46261 -15.777 -11.0241 42.4423 
22657 2 7.60419 5.1024 9.41016 53.6336 -15.5664 21.0314 
20036 3 13.619 0.47741 7.57109 -16.4675 -19.5441 17.2274 
20107 4 13.6664 2.6833 8.8298 -18.0557 -14.0842 -33.6981 
20104 2 13.8784 4.18168 8.97251 31.6511 35.9248 93.0327 
20031 2 13.7132 1.1448 8.96008 62.798 164.165 14.3392 
20108 5 12.6966 4.70757 9.81807 14.6544 11.9524 1.37 
20112 5 12.4932 0.846951 9.91178 10.9 -0.0991508 7.34234 
22654 1 10.4859 2.78478 9.68506 11.0606 9.99721 11.5735 
22661 5 9.03983 1.11007 9.56315 -7.45495 -6.48357 -16.1166 
22663 5 9.10858 4.7108 9.73761 4.37975 -12.9606 -15.7157 
22563 1 10.886 -1.13469 10.1589 -0.164018 -0.529162 -10.743 
22659 4 7.7627 -1.12896 9.68153 -9.45213 -34.7253 -34.405 
22629 6 11.3751 -1.065 7.76545 -16.752 5.02877 2.74653 
22669 7 11.9249 -0.207968 7.44815 1.29667 5.21764 -1.34657 
20352 9 13.8605 1.22514 6.87465 0.704284 12.5421 14.6003 
20189 7 14.2777 3.18994 6.51456 0.289741 13.5289 8.44971 
20353 9 14.543 5.23857 7.22704 7.75889 13.204 16.8557 
20148 6 14.5671 2.45013 5.87332 0.144455 0.0571906 0.0961488 
22740 7 11.2703 5.5881 6.8279 3.28486 1.47929 -1.18288 
22738 7 8.76742 5.41578 5.90114 -0.681673 0.699539 -1.32557 
22701 6 7.85394 5.37142 5.69312 0.475007 -0.314253 7.7857 
22739 7 7.886 4.86164 4.87022 -0.0111376 0.0202563 0.00893581 
22670 7 11.9327 -1.89861 7.72342 1.03736 1.65063 -5.38216 
20188 7 15.4435 2.20345 6.22553 0.816494 -0.136253 0.0860737 
20037 5 15.0057 0.565552 9.66218 -0.993131 -6.92325 -12.9981 
20118 7 17.8719 2.63796 7.70159 5.66928 -0.344479 -2.91907 
20117 7 17.6995 1.17882 7.44002 3.0361 2.54882 -4.69726 
17799 9 19.455 -0.241526 7.33338 0.329025 6.61053 17.8886 
20077 6 17.1284 2.01775 7.60787 -23.2704 2.41079 26.7062 
17484 3 19.536 4.02271 8.03155 -4.22088 -2.51385 -2.26824 
20109 5 15.1822 4.68195 9.53593 -5.73638 -7.22291 -17.1165 
17480 3 19.3808 0.510653 7.95906 -16.5317 -31.9965 10.9173 
17478 2 19.7385 0.13463 9.405 33.3871 34.5563 50.3271 
17479 2 19.7269 4.90401 9.32133 47.1137 113.269 59.289 
17485 5 21.0972 4.45706 9.83859 4.76472 -16.1886 -16.3143 
17483 5 21.125 0.57616 9.92672 4.92485 -9.91292 -13.5063 
17482 5 18.7273 0.612358 10.4453 0.775111 -3.66563 -6.74704 
17560 5 18.5746 4.39351 10.2378 -1.14631 1.42649 -12.0801 
20011 1 16.7883 2.43064 10.1919 48.7427 45.7301 30.3356 
20028 1 16.5417 -1.33752 10.1131 23.2584 17.0473 9.90978 
17481 4 19.613 -1.37684 9.30614 -12.4896 -19.5396 -38.5483 
17800 9 20.2785 3.41394 7.96437 0.302539 -2.90532 -5.51036 
20002 6 16.2002 -1.21507 7.53432 -10.4581 -7.52397 13.5582 
20044 7 15.5857 -0.449442 7.68688 4.32761 8.56695 -2.90809 
20043 7 16.3516 -1.12082 6.60323 0.284813 0.200697 -0.84426 
17377 6 19.8786 -1.6773 6.3322 0.247998 -0.140485 -0.00570118 
17415 7 20.5742 -1.92657 6.98281 2.8399 2.49802 1.97175 
14864 7 23.6314 3.83266 7.75133 5.59089 -4.70227 -1.48485 
14825 6 23.2988 2.969 7.82153 -9.28903 -3.81464 1.37396 
14863 7 24.1611 2.53617 7.90018 3.87769 -1.31762 -0.538959 
17476 1 22.5994 2.5974 10.2549 -66.2011 -41.2334 17.5108 
14928 3 25.5679 4.59148 8.20809 -31.4613 -50.1005 -46.6915 
15246 9 24.7065 0.00657495 8.04332 8.00118 10.7995 20.1194 
14856 3 25.5405 0.383335 8.16649 -12.6083 -14.78 10.7018 
14929 4 25.6618 2.47021 9.27814 -17.9836 -35.026 -34.3813 
14851 2 25.7726 0.935136 9.6021 20.2969 -189.84 75.7899 
14926 2 25.8313 3.99121 9.61155 29.0688 146.876 90.4745 
14857 5 27.172 0.513951 10.0212 -9.61685 -11.9231 -20.8918 
14931 5 27.2703 4.30837 10.1061 -28.3099 -11.5378 -17.8403 
14832 1 28.9014 2.41808 10.4207 15.2623 11.8038 59.6932 
14930 5 24.8007 4.37565 10.6576 12.6729 -4.6718 -12.6856 
14934 5 24.7275 0.511689 10.6576 4.68848 -3.66146 0.1517 
17384 1 22.8636 -1.16741 10.5973 -3.28893 4.0835 -34.3562 
14848 1 28.7231 -1.43222 10.2624 14.93 18.5392 7.70524 
14898 6 29.1786 2.45721 7.88738 -13.6732 -15.3797 6.1349 
15247 9 26.3681 4.66526 7.72718 -1.61424 -1.09348 -15.3211 
14826 6 28.1456 -1.3901 7.71182 1.33936 -3.37791 26.7133 
14861 7 27.5228 -0.59177 7.7367 4.99464 5.84013 -2.28796 
14862 7 28.7608 -1.17174 6.9734 0.155343 0.037949 -0.0651482 
17565 7 23.8543 5.62398 7.62904 12.531 3.71626 -1.58899 
17491 7 23.3409 -0.830267 7.25909 0.0967075 0.0727122 -0.457543 
12347 6 29.4782 5.3719 8.00631 -15.2574 -7.13247 4.15983 
14939 7 29.2544 3.33895 7.63004 0.445189 -0.92072 -1.20831 
17492 7 24.1978 -1.77871 8.08715 8.19561 2.44067 -6.30088 
17450 6 23.2929 -1.42611 8.02021 -21.4704 -6.92669 19.2138 
25291 7 5.22591 6.53661 7.32751 1.19574 1.62998 -3.19338 
25290 7 3.82687 6.55555 6.86919 -0.68139 1.63959 -4.40815 
25253 6 4.33607 6.71227 7.63615 -9.68956 -11.469 2.16131 
25517 7 1.84279 7.29014 5.50902 -0.0260234 -0.0601068 -0.551329 
25313 6 1.21101 6.45671 5.78137 6.04525 -5.12558 30.1676 
25362 7 1.19888 10.608 6.31952 -0.016293 -0.0121762 -0.0173886 
25275 1 4.36027 6.50413 10.1833 3.92458 12.9725 7.49856 
25278 8 0.639374 6.49188 7.63496 52.8801 31.7778 9.58274 
22958 9 3.89074 10.3239 7.2783 -3.47227 1.50183 0.285798 
22732 3 4.70032 10.3548 7.96195 2.34803 -12.6953 13.5129 
25359 5 0.701437 8.49354 11.0939 -10.0389 -10.3383 -16.5181 
25356 5 3.08021 12.146 10.2169 9.96685 0.104297 -12.4661 
25355 5 0.535314 12.2845 10.6518 -2.75223 -5.34196 -7.73902 
25354 4 1.48185 10.2856 9.54639 -13.6871 13.9735 -26.7159 
25353 3 1.39194 12.6945 8.41831 -12.9517 -8.18603 3.8748 
25351 2 1.63225 11.8296 9.72046 40.8638 48.6254 65.5489 
25286 5 2.93236 8.28049 10.0288 -5.52811 -16.027 -18.6923 
25285 4 0.892127 7.85648 8.74192 -20.5669 -18.5795 -4.65002 
25279 2 1.49492 8.71367 9.83417 15.9906 98.5343 76.2255 
25259 1 4.86194 10.2149 10.3927 8.052 9.39366 60.0033 
25327 6 1.60703 9.7444 6.34125 2.33551 1.36836 -0.904953 
25363 7 1.38635 9.50649 7.2315 0.485389 2.70561 1.47825 
22807 5 6.5607 12.2849 10.8694 -15.3339 -14.3286 -17.3149 
22730 5 6.65234 8.34528 10.5398 -4.70093 -14.5259 -13.7333 
22726 8 6.48614 10.4372 7.49213 -1.59078 17.9931 -26.1302 
22761 6 7.05704 10.8316 5.66761 1.76782 2.50382 6.83009 
22733 4 6.9844 11.7221 8.61372 -11.0021 -12.8115 -2.6546 
22728 4 7.23016 9.05362 8.29312 -12.8672 -20.2745 -5.57473 
22953 7 7.91026 10.1976 5.3838 -0.066467 0.100296 -0.651719 
22965 7 7.33207 11.8331 5.45166 -0.0487614 0.141648 -0.277112 
22741 7 11.5 7.01103 7.05421 2.60689 -0.0323998 -1.56752 
22700 6 10.8104 6.36788 7.23855 -16.092 -2.09656 18.7201 
22636 1 10.9188 6.69179 9.82281 4.74548 9.63913 12.3054 
22729 4 7.48133 6.61374 9.11192 -11.1209 -8.4572 -27.164 
22668 7 10.5831 8.59932 7.42923 1.90055 4.36447 -3.25476 
22725 2 7.70374 8.13304 9.39568 26.9484 30.8288 96.4293 
22727 2 7.53968 12.6129 9.75953 17.1278 132.599 79.7373 
22630 6 10.7174 9.56513 7.55044 -8.16013 0.688115 5.4615 
22667 7 11.6785 9.56 7.58776 1.26912 0.739878 -1.33623 
20110 3 13.3722 8.00482 7.87861 -11.0259 -1.15734 -3.66665 
20176 4 13.3404 12.979 8.33811 -6.60719 -6.95712 -4.12578 
20177 4 13.5478 10.5013 8.95979 -6.2543 -0.275984 -16.4585 
20173 2 13.7057 11.9908 9.40771 33.1691 -5.04766 77.6791 
20105 2 13.7244 8.93675 9.12343 -1.73993 6.96865 86.6407 
20178 5 12.5598 12.2564 10.4158 -7.55236 -12.414 -22.5876 
20183 5 12.8988 8.51128 10.3587 -3.46868 -11.0084 -8.33929 
22734 5 8.97942 12.4092 10.1072 -12.4987 -12.5161 -17.4749 
22723 1 10.5486 10.4168 9.97488 -2.8355 4.01448 10.172 
22731 5 9.11607 8.33188 9.85191 -15.6094 -24.2564 -22.2558 
20354 9 13.8366 7.1662 8.02076 -1.12707 -12.3079 -25.5341 
17489 7 15.3685 7.53149 7.27379 -6.21275 -2.28297 -3.76608 
17490 7 16.4114 7.08597 6.51817 -0.225496 0.0330983 -0.310486 
17451 6 15.9423 6.78743 7.29642 -18.7285 -17.1421 17.4233 
17555 4 19.5148 6.40419 9.24816 -10.9244 2.49217 -18.3093 
20102 1 16.4765 6.46221 9.86905 10.5327 0.120759 17.9065 
20179 5 15.0791 12.3713 9.86379 2.72113 3.72521 -11.5761 
20111 5 15.0953 8.51182 9.52882 -26.1905 -13.9842 -14.98 
17802 9 19.4832 11.878 7.51898 -0.109902 -0.0977508 0.172954 
17554 3 19.6317 8.68088 7.9737 -1.86504 -5.32706 6.04581 
17801 9 19.3812 9.57046 8.10065 0.619936 12.2026 6.47771 
17558 3 19.3121 11.5602 8.35726 -4.09731 -2.2083 -1.10726 
17552 2 19.7279 7.97853 9.40881 25.2141 57.5255 59.6483 
17553 2 19.7446 12.5897 9.5152 41.595 43.1377 66.3606 
17559 5 21.2085 12.1329 9.83297 6.90091 -0.619046 -10.7678 
17557 5 21.1128 8.33065 9.93016 1.0137 -11.3909 -15.3493 
17556 5 18.49 8.44005 10.194 12.515 -3.74466 -5.93638 
17631 5 18.754 12.2185 10.6826 1.74435 -5.41808 0.0647162 
20084 1 16.8199 10.2664 10.3615 -12.1943 -5.40245 -0.568219 
17566 7 22.7737 6.49197 7.09029 0.0942427 0.0180234 0.0537142 
17525 6 23.2369 6.30614 7.97014 -29.8833 -5.78306 17.1145 
15249 9 26.4199 12.3989 7.50271 0.838352 0.686287 0.262543 
14924 1 28.8784 6.30371 10.2599 24.7807 20.0721 3.59091 
17459 1 22.8153 6.36449 10.4136 -83.1638 -68.1161 40.844 
17550 1 22.6813 10.1773 10.109 18.9707 17.7948 8.24056 
15248 9 25.0074 7.30471 8.25379 6.72447 8.80989 8.66688 
15002 3 25.5553 12.1132 7.86039 -4.76868 -8.79677 8.7058 
14932 3 25.8534 7.69566 8.37038 -4.63012 -4.13348 1.39763 
15003 4 25.6929 10.0578 9.40228 -8.9594 -5.93078 -23.678 
15000 2 25.8234 11.5586 9.33827 28.6055 103.09 74.5862 
14927 2 25.9265 8.52626 9.67582 39.8181 66.2686 74.2955 
15005 5 27.2586 12.0307 9.65026 -1.69069 -12.7971 -17.573 
14933 5 27.3368 8.19806 10.2714 9.56916 -13.864 -17.5363 
15004 5 24.794 12.1885 10.2281 0.969697 2.97071 -13.2957 
14907 1 29.0423 10.186 10.3202 23.9735 18.8777 23.3791 
15008 5 24.7476 8.17989 10.6591 15.5306 -0.0817137 -1.82861 
14899 6 29.4402 9.94521 7.67407 -3.23438 0.0480009 5.34459 
17637 7 24.0129 13.1402 7.48134 1.60944 0.644838 -0.175324 
25427 5 0.471403 16.2254 10.9577 6.43524 -3.5329 -3.72765 
25424 5 3.05777 19.7432 10.2643 -15.1002 -6.44618 -9.99106 
25423 5 0.62854 19.9386 10.7649 4.24733 -4.35009 -10.1062 
25422 4 1.53223 17.8586 9.5283 -9.716 7.09778 -14.6616 
25421 3 1.35286 20.1653 8.46116 -3.24126 -2.56841 -0.114915 
25419 2 1.68921 19.4163 9.80763 -41.3306 140.093 66.6415 
25358 5 3.0433 15.9649 10.3935 5.93135 -1.23346 -11.4558 
25352 2 1.62447 16.359 9.9389 56.9364 2.29893 36.4477 
25333 1 4.76049 17.9652 10.8964 -5.56502 13.5909 -32.3866 
25357 3 1.27516 15.4524 8.77037 -12.2916 -17.3467 19.008 
25460 9 1.6173 15.8283 7.87293 0.0974661 0.361515 4.24267 
25349 1 4.58657 14.1062 10.6957 6.90865 16.1408 -12.8065 
22803 5 6.49129 16.0975 10.8756 1.61297 -0.649055 -0.203294 
22875 5 6.46084 20.071 11.1158 20.261 8.07526 7.97277 
25459 9 1.48999 13.6574 8.56205 -1.36848 4.94148 -4.15664 
22801 3 7.03055 16.5942 8.55987 -2.22422 -6.96992 4.22467 
2179 7 -0.387305 20.8468 8.22815 14.4409 2.20753 -6.33047 
22805 3 7.32975 19.3599 8.91011 -8.44033 -8.71797 26.206 
22908 9 7.54595 19.9046 8.12021 0.0101882 0.262097 6.54603 
22774 6 7.84223 14.1301 6.46407 2.03428 1.27904 1.8977 
22907 9 7.21638 17.5067 8.66763 -0.0840084 20.2639 1.69995 
22800 2 7.69826 20.1918 10.1825 71.2568 57.8903 36.7848 
22810 7 9.52718 17.6319 7.67339 -2.03604 0.949796 -2.01497 
22775 6 10.3724 17.5576 8.1234 -18.0032 -9.03324 6.64583 
22811 7 11.0269 17.744 7.42304 6.0654 1.04956 -1.28408 
20249 3 13.6146 20.1923 8.5115 -17.5055 -15.9667 19.7316 
22799 2 7.50164 15.6895 9.76752 0.857912 21.5324 71.133 
20181 4 13.1648 15.598 8.7498 -9.61444 -32.015 -11.7182 
20250 4 13.59 17.8559 9.69511 -13.8173 6.66505 -27.7498 
20247 2 13.6446 19.4223 9.89672 3.15028 29.3922 68.5143 
20175 2 13.7411 16.3389 9.95052 44.4163 116.62 89.0434 
20255 5 12.7826 16.0392 11.1348 -2.84289 -11.4693 -16.5192 
20251 5 12.5994 19.887 10.8751 -0.680972 -0.314413 6.98914 
22797 1 10.5866 17.8329 10.6706 3.54924 -1.75289 15.5785 
22804 5 8.85928 16.0465 10.2629 -4.49711 -11.2113 -14.3428 
22806 5 9.15709 19.6726 10.6518 26.635 -12.3114 -11.3772 
20209 6 12.874 15.0323 5.7533 0.482803 -0.360913 1.51408 
20174 8 12.7095 14.4625 7.54514 27.4524 10.8978 -54.1183 
22802 4 7.35344 14.1712 9.46207 -20.8425 9.67687 -28.73 
22707 1 10.7485 14.2517 10.2767 12.8593 10.6701 6.34091 
20180 3 10.8086 14.0423 7.95232 18.2543 -8.82573 5.19401 
20260 7 13.0324 18.8856 6.99744 0.130126 1.32903 1.25522 
20261 7 12.9162 17.3666 7.33817 -0.530144 10.6284 5.56235 
20401 7 13.4229 15.9899 5.62814 -0.162254 0.311743 -1.28346 
20406 9 10.0189 14.4108 7.4707 -1.29268 2.84149 -2.50925 
20413 7 11.9327 15.1884 5.26927 -0.0685864 -0.02474 -0.439052 
20222 6 12.7014 18.0477 6.67459 -0.7429 0.712936 -0.957333 
22813 7 7.7456 15.0607 6.62462 -0.0707151 -0.049582 0.062812 
22812 7 7.44152 13.8113 7.30537 0.75025 1.44306 6.51091 
17861 7 18.0327 18.1656 5.18632 -0.0414459 -0.0258241 -0.195415 
17849 7 19.1146 19.332 5.5722 -0.0523028 0.152415 -0.564969 
17657 6 18.7692 18.3451 5.88217 -4.87936 -2.66226 15.0483 
20252 5 14.9691 19.7344 10.5394 -8.38057 -13.7602 -18.0815 
20182 5 15.2166 16.0409 10.213 -3.93809 -20.5916 -14.3286 
17622 8 18.5634 18.0799 7.75046 32.0877 28.0088 -14.2136 
17854 9 15.9449 18.6012 8.0719 -0.301665 2.03048 -3.27962 
17628 3 16.7563 18.0742 8.25458 4.03984 -10.0245 9.60416 
17624 4 19.3217 16.6826 8.46567 -7.74241 -11.5415 -3.49704 
17629 4 18.9827 19.4332 8.85904 -13.5504 -12.2355 1.36512 
17621 2 19.6951 15.6526 9.54627 46.3915 95.472 81.3041 
17623 2 19.5501 20.2671 10.0023 53.4436 24.9929 76.3211 
17630 5 21.0316 19.7719 10.2793 12.5388 -2.44207 -15.5247 
17627 5 21.1919 15.89 9.96206 1.17663 -17.829 -16.4601 
20155 1 16.8424 17.9752 10.6946 1.3116 10.678 -37.7001 
17626 5 18.7672 15.8963 10.7355 -8.94156 -9.09132 -12.7198 
20171 1 16.7158 14.1373 10.3208 4.42319 5.75193 -10.2093 
17625 4 19.606 14.0957 9.12525 -6.08173 8.01176 -11.6069 
17564 7 21.4906 17.2833 7.58657 -0.581944 1.56001 -1.17614 
17703 5 18.6795 20.0258 11.2014 -15.5036 -12.0071 -20.4128 
17709 7 19.905 20.6273 7.34679 2.89219 4.97838 4.44003 
20259 7 15.568 20.8847 8.4035 12.1656 3.50888 -2.43581 
17526 6 22.4132 17.452 7.70597 -7.65057 -6.66616 17.8114 
17563 7 22.8092 16.6576 7.3521 0.277521 0.347881 -1.85672 
17619 1 22.5682 17.9268 10.3236 11.3602 13.0512 -16.1502 
15250 9 25.4259 16.554 7.3496 3.22195 4.18801 70.427 
15006 3 25.6058 15.7572 7.92658 -17.2246 -12.2094 55.2582 
15072 4 25.3173 20.4252 8.40544 -12.9724 -7.84251 -2.98191 
15073 4 25.9599 17.9542 9.15621 -15.8992 5.91083 -35.4867 
15069 2 25.8295 19.4844 9.52152 47.2861 196.131 69.1515 
15075 5 27.2671 19.8707 9.91392 5.03638 -4.06061 -14.6476 
15001 2 25.8934 16.4473 9.39988 32.0192 22.8411 34.7379 
15007 5 27.2951 15.9854 9.7832 -0.590804 -10.5904 -16.1863 
14980 1 29.1857 17.8209 10.1444 -13.1057 -20.6536 15.5865 
15074 5 24.8028 19.6389 10.6176 -6.29666 -5.21613 -19.6784 
15079 5 24.8396 16.1163 10.4638 8.80376 -3.5143 1.0146 
12533 7 25.4571 18.3754 7.23091 -0.407019 4.44868 5.91485 
17532 1 22.9834 14.1035 10.1761 9.58977 11.6011 8.04142 
14998 1 28.6373 13.9834 10.0874 20.1854 24.6419 13.8456 
12492 6 25.1645 17.9196 6.43544 -1.26987 -1.71275 -0.904693 
12532 7 24.2391 17.8074 6.45162 -0.0708829 0.0101159 -0.231286 
17636 7 24.2982 14.6547 7.77674 3.16623 -4.73109 -4.38943 
17597 6 27.3956 19.7327 6.47718 -16.3267 -1.03792 1.12231 
17635 7 27.0344 19.9354 7.31032 6.32092 1.18852 -2.29745 
17596 6 23.5563 13.9987 7.66239 -11.4249 -1.53224 4.38581 
14974 6 28.7308 14.0837 7.53935 -5.7176 -10.9246 7.24 
17634 7 26.9707 18.9124 6.11254 0.288097 0.569575 -0.156941 
15084 7 28.6931 18.2675 6.90767 0.588685 2.76695 -1.52566 
15012 7 28.1952 14.867 7.30744 1.76721 1.80373 -1.73632 
15044 6 29.2899 17.8272 7.55162 -18.3606 -15.2368 14.2437 
15011 7 29.5706 14.1102 6.99075 5.0467 0.879405 -0.291793 
25461 9 1.63963 21.1191 8.56579 -0.417198 9.00368 -6.00805 
25417 1 4.459 21.7465 10.9217 -16.7359 -19.8923 -19.1155 
24923 5 0.754769 27.5218 10.9484 6.02351 2.00648 -1.92949 
25425 3 1.35108 22.98 8.77836 -10.7249 -8.32682 18.2517 
24927 5 0.559259 23.61 11.1153 15.7553 -1.54744 7.98767 
25426 5 3.10363 23.8017 10.4009 3.51572 -9.47764 -9.50707 
25420 2 1.64879 23.9265 10.0018 35.9943 98.176 59.834 
25401 1 4.97038 25.5329 10.7242 12.114 4.83062 6.87904 
24924 5 3.18735 27.1766 10.4054 -6.21664 -6.05946 -13.9751 
24922 4 1.38256 25.4386 9.75254 -16.5114 10.4066 -17.1858 
24919 2 1.7823 26.9563 9.95451 1.54149 144.619 61.5893 
24921 3 1.55556 27.7248 8.56562 -3.26005 -0.93517 8.38102 
25462 9 1.60156 23.3783 7.96981 -0.0539699 0.117814 1.81244 
22871 5 6.64021 23.6959 10.9095 4.77427 -4.78468 -4.36779 
25451 9 2.36751 27.8615 8.13061 0.0528613 0.482184 1.54716 
22375 5 6.78156 27.3777 11.2762 2.059 -3.74686 -3.4744 
20355 9 13.7553 21.1037 8.67011 -2.61526 21.3193 -0.854553 
22873 3 7.36095 26.8242 8.94079 -1.87324 -2.95829 22.4285 
22910 9 7.83453 27.1872 8.16884 0.0187934 0.30391 5.20187 
22881 7 10.5673 22.2037 7.78641 0.174895 0.147712 -0.586176 
22880 7 12.0072 21.7432 8.22322 12.0912 4.42432 -4.47329 
22869 3 7.56442 24.0265 8.5961 -0.854776 -1.28817 0.73415 
22842 6 11.0399 21.8185 8.50693 -11.6316 -8.59844 2.40329 
22909 9 7.42422 24.9915 8.72358 -0.295551 9.4829 -0.623822 
22870 4 7.80675 21.6814 9.76784 -9.70729 13.0352 -14.2077 
22781 1 10.8959 21.6885 11.0129 -25.6323 -19.0967 22.0958 
22868 2 7.76545 27.7412 10.1816 39.0221 97.9074 39.5766 
22867 2 7.78902 23.2324 9.92461 53.9174 189.906 71.2775 
22381 7 12.0152 26.341 8.4485 11.0685 9.19693 -1.47165 
20253 3 13.4682 23.4016 8.82795 -29.3975 -27.7582 6.85502 
22380 7 10.8121 26.2531 7.54966 0.0736137 0.106407 0.102364 
22342 6 11.2091 25.8188 8.3988 -19.3466 -2.78872 29.7708 
20317 3 13.3219 27.8427 9.08682 -10.2447 -13.06 -7.41575 
20248 2 13.7696 24.0294 10.2263 7.60188 2.98643 107.608 
20318 4 13.624 25.5447 10.0164 -28.9795 -18.7907 -42.4611 
20315 2 13.7788 27.0543 10.3348 51.1515 -14.541 79.3655 
22865 1 10.6865 25.3992 10.9226 12.9921 11.2402 31.4798 
22872 5 9.17462 23.6871 10.462 5.27494 -15.501 -13.6142 
22874 5 9.24947 27.6706 10.5948 6.7061 -9.65849 -9.68926 
20356 9 12.5954 23.6209 8.49206 10.3194 3.9046 -9.7532 
25431 7 14.1509 26.52 7.83751 1.08597 4.74513 6.8668 
20323 5 12.8525 23.6161 11.429 2.29057 -7.58545 1.36162 
25430 7 14.093 24.9955 7.86813 1.703 4.76537 10.7347 
25395 6 14.4016 25.7329 7.27378 -0.140524 0.0907272 -0.177925 
20258 7 15.2294 22.3163 8.12146 1.33987 0.125374 -1.39878 
20223 6 16.0015 21.7513 8.2238 -7.27004 -1.21085 9.15462 
20245 1 16.5342 21.695 10.8038 16.3263 20.8378 39.0444 
17698 4 19.4354 21.7483 9.56107 -12.1788 -3.73858 -28.8417 
20320 5 15.2214 27.4242 10.856 4.70693 -11.2692 -14.5101 
20254 5 15.1801 23.5949 10.561 -15.6707 -11.3335 -19.9615 
20329 7 17.2434 26.6466 8.28058 4.01836 3.1965 -3.64844 
20328 7 16.0419 25.8023 7.61998 1.7069 -0.0144465 -0.0480673 
17803 9 18.6355 24.4714 8.19816 9.12484 9.2082 -0.713108 
20290 6 16.6573 25.8385 8.42977 -27.1987 -4.68921 8.3641 
17697 3 19.4666 23.9299 8.24968 -7.38625 -15.4432 7.94745 
17701 3 18.7572 27.5768 9.07536 -11.6371 -29.4163 -2.87046 
17695 2 19.6311 23.298 9.64847 2.68267 6.04018 79.132 
17696 2 19.6976 27.9701 10.2409 34.4139 99.775 89.3005 
17700 5 20.9899 23.6351 10.1729 -17.3831 -7.70601 -19.0667 
17702 5 21.0953 27.3466 10.1236 7.82424 -13.363 -20.0529 
17699 5 18.7076 23.7838 10.7613 -3.64279 -4.4065 -1.61351 
20229 1 17.0048 25.6018 10.9426 16.9199 14.9254 -49.5898 
17708 7 20.0702 22.1005 7.0657 -0.247867 1.39973 0.798384 
17670 6 20.1319 21.2549 6.64674 -0.742247 0.848525 -1.27434 
17707 7 20.7868 25.2363 7.6314 4.67973 4.90549 -0.0659828 
17706 7 21.1787 26.5559 8.43819 0.150145 6.49749 6.83103 
17671 6 21.5933 25.7538 7.94146 -0.441806 -4.72009 5.19122 
17804 9 18.1596 28.2261 8.79174 4.33701 -0.383674 -3.09814 
15302 9 22.12 22.0167 7.2663 -10.7498 2.28248 -0.625464 
15082 7 28.9341 21.4367 6.98265 -0.12245 1.91202 -3.03516 
15309 7 26.1711 21.1856 5.56242 -0.0516213 0.354142 -0.581497 
15297 7 25.7773 22.9358 5.36905 0.0245655 0.42192 0.0404088 
15076 3 22.8653 21.7306 7.945 5.08649 -10.2859 6.5044 
15105 6 25.4296 21.9972 5.7434 2.5252 2.79648 8.73487 
15067 1 28.5009 21.8246 10.3102 7.44161 14.1489 36.2363 
17603 1 22.8719 21.8054 10.3091 41.3961 30.9632 60.8739 
15070 8 24.6898 21.8654 7.53391 8.53922 21.9272 -5.76898 
15157 7 24.761 24.7113 6.5409 0.0840636 1.42788 -2.16197 
17693 1 22.4585 25.6458 10.3024 35.1646 47.0035 38.0745 
15118 6 24.3516 25.0692 5.80024 0.216519 -0.0167526 -0.0797475 
15156 7 23.4675 25.4068 6.08223 0.347827 0.0658652 -0.0150952 
12750 9 28.7793 27.0604 8.02173 -18.1417 -1.29636 -3.38347 
15145 3 25.8709 28.1424 8.32624 -25.0594 -10.1139 24.1319 
15077 4 25.2347 23.1977 8.50469 -14.8107 -21.7604 -11.75 
15146 4 25.5466 25.6818 9.29943 -7.82266 18.0276 -15.3508 
15143 2 25.8227 27.2278 9.63665 34.5255 57.3783 41.4374 
15071 2 25.6377 24.1622 9.58877 43.0695 137.607 69.5512 
15078 5 27.0823 23.775 9.8664 3.37222 -1.55914 -11.9814 
15148 5 27.2019 27.5255 10.2775 11.2691 -13.1813 -15.6162 
15051 1 28.9278 25.6837 10.4438 0.322733 13.3573 41.9748 
15147 5 24.7278 27.7419 10.5663 3.52464 -1.83702 -7.71528 
12524 3 29.1596 26.0649 8.01414 -11.2851 -1.27786 8.8179 
15045 6 29.2043 21.7754 7.82857 -18.503 -11.0512 5.0406 
15251 9 25.5134 27.6474 7.63837 -0.092669 -0.287018 15.5811 
15151 5 24.6677 23.8201 10.7274 -4.86563 -8.33141 -14.709 
25272 7 0.373293 4.18183 16.3324 3.81021 -2.86411 1.27501 
25198 5 4.5419 2.55475 12.6561 -16.1435 -8.72891 -11.2982 
25195 5 4.3158 -1.09258 12.7632 -0.211746 -3.76478 4.03391 
25511 9 -0.0325067 0.595791 16.2802 -14.5974 3.65957 1.45482 
22635 1 6.05896 0.692999 12.8525 -16.1784 -2.48551 -9.09463 
25268 5 2.06322 2.89899 12.9931 1.03269 -8.91439 -21.8785 
25258 1 0.250924 4.4912 12.7638 14.5965 7.42663 14.79 
25207 1 0.476342 0.786529 13.0733 14.5507 41.5156 28.7325 
25191 2 3.47612 3.03985 13.5769 18.4748 59.7758 65.7012 
25263 4 3.57926 4.53329 13.9916 -28.4647 0.122122 -30.8081 
25197 4 3.26023 2.0922 14.7531 -7.22219 -12.9429 -7.12556 
25192 4 3.04502 -0.482259 14.848 -7.47928 -23.058 -7.21945 
25196 3 0.649496 0.960781 15.4929 -6.89355 -14.6193 19.3009 
25190 8 2.41577 0.834343 15.7718 -17.1372 23.1026 -8.31606 
25240 6 3.57576 1.13774 17.363 8.35269 13.8095 21.8511 
25519 7 3.54715 0.361438 18.0802 0.909306 6.45587 -13.5803 
25507 7 3.3873 2.04042 17.9448 -1.21718 12.3891 -10.2349 
22649 6 4.39415 4.24137 16.9931 -21.7787 -11.7079 -10.7767 
25308 6 0.214324 4.46138 15.4312 -21.1334 1.38193 19.9186 
25270 6 1.10646 4.18814 18.2266 -28.4005 18.9101 -16.4961 
25310 7 1.49311 4.95206 18.667 2.91952 2.87279 1.13386 
22655 1 6.37544 4.67075 12.8239 -0.937207 7.12845 -5.12197 
25194 5 1.89442 -1.62182 13.1754 -0.100216 -14.2259 -18.9736 
25189 2 3.31878 -1.5892 13.8009 41.2832 40.409 88.165 
25309 7 1.46844 3.42478 18.8081 0.688056 4.17551 -1.60879 
22683 6 6.17559 0.770871 15.4055 -14.3815 -5.67102 -3.19803 
22684 7 3.79825 3.53515 17.0446 -1.67841 -2.72203 -0.598596 
22644 3 6.82483 4.48706 15.1346 -0.894506 -14.9823 10.9342 
22759 7 5.04043 5.05472 18.4323 3.26929 2.22445 11.08 
22959 9 6.18558 4.70839 15.975 -25.1312 4.34987 3.18595 
22685 7 4.10913 4.67398 16.1321 1.69989 6.31823 16.6729 
22651 7 5.51157 0.373282 15.9724 -2.08256 -1.43431 -1.30683 
22687 7 5.18981 -1.15917 18.9951 1.38476 17.2322 -2.7534 
20023 6 6.64145 2.11494 17.7016 -11.1552 -20.1516 7.01802 
22650 7 6.67215 1.3569 16.0565 2.0533 3.74804 11.1235 
20062 7 5.99003 1.67947 18.3772 8.53779 7.40275 5.54921 
25236 7 0.613798 -0.467911 19.2612 17.2611 7.50042 -2.79093 
25201 6 -0.155023 0.129023 19.2096 -18.4829 -8.55353 1.26126 
20061 7 6.19525 2.88456 17.4086 5.08919 0.798019 -0.538856 
20369 9 15.2915 22.3671 19.2809 15.9843 23.8099 39.7039 
22652 7 6.58586 -1.57372 16.2434 1.23235 3.83841 -2.0645 
17474 7 17.0833 -1.92853 15.8158 11.587 8.35002 -3.45181 
20270 3 14.3623 25.2744 19.3626 -25.1993 -20.3692 -5.00615 
20022 6 12.2855 3.22319 17.1305 -5.10384 -1.0262 -0.993271 
20101 7 7.95283 0.530489 17.2551 -1.39255 2.95281 -0.868571 
22931 9 9.4276 -0.771029 15.7674 2.36857 5.1321 62.9118 
22643 5 10.3472 2.57234 12.1955 -2.14588 -4.00217 -9.14529 
20083 1 12.0539 4.57824 12.2941 15.3348 8.04559 23.9131 
22642 5 7.78438 2.32799 12.6693 -1.78198 -7.33704 -20.5396 
22572 5 10.3915 -1.19034 12.4814 1.7373 -7.9645 -1.69512 
22647 5 8.01803 -1.15376 13.3887 16.4033 -13.4358 -19.5314 
20029 1 12.4935 0.818447 12.5759 -8.81389 -6.12982 -16.4956 
20095 5 13.8672 2.81253 13.0198 2.03314 -10.3589 -11.0151 
22637 2 9.23854 2.21284 13.1776 47.5986 137.124 78.4985 
22565 2 9.47766 -0.798971 13.6553 26.5375 40.9853 37.1453 
22641 4 9.6135 0.790931 13.697 -19.7167 14.9888 -25.2314 
22640 4 9.10375 3.21619 14.2882 -12.6595 -28.7415 -17.0385 
20060 6 12.4762 0.383252 15.0393 -16.0813 -14.3412 0.573026 
20025 7 13.327 -0.128125 14.8882 11.7289 1.87616 -1.43396 
22638 8 8.70383 4.51212 15.359 -35.7302 -22.5224 -106.445 
20024 7 11.7283 -0.193992 15.0326 9.48445 -1.48283 -5.712 
22688 6 9.23083 4.44224 17.1911 -14.6988 -3.5962 -6.59513 
20130 6 8.67956 -0.0603409 17.3632 1.84058 -15.9383 5.53765 
20016 5 13.8732 -1.10957 13.0216 10.5133 -16.5379 -21.8103 
20100 7 9.2145 0.345776 18.0306 0.420625 0.0876704 -0.0808248 
22967 7 8.80146 3.73729 17.8739 2.40559 -0.039953 -35.6693 
22571 3 9.90228 -1.26386 15.0231 -21.5898 -36.0121 12.291 
20064 7 12.9971 3.27302 17.7754 4.12497 0.394741 -1.52147 
20063 7 12.6218 2.43184 16.6948 3.0311 2.85564 -2.50756 
22955 7 9.31208 5.35463 17.7369 -0.220259 -0.0589471 -28.6765 
22918 9 9.04643 -1.17871 18.934 6.30651 -2.3337 71.8144 
25471 9 2.82546 -1.57924 18.7284 1.47627 1.65398 1.08203 
20096 6 11.4286 0.93019 18.8698 -16.7225 0.754092 20.7499 
20098 7 11.1866 4.02576 18.6261 3.25821 1.71019 -0.732159 
20135 7 11.5913 1.79542 18.3869 5.52892 9.60132 4.15901 
22919 9 7.93573 2.46541 18.9939 8.9659 3.54808 122.312 
20379 9 14.5419 2.13997 15.5589 5.06861 6.68068 44.5289 
20134 7 11.7008 0.341026 18.1264 3.56192 -2.54437 1.83716 
20056 3 14.5765 2.75246 19.2215 -9.65087 -13.4077 8.10318 
17813 9 21.2119 1.43717 18.5441 3.82083 17.8149 20.156 
20378 9 15.4007 0.0444891 14.8487 0.258066 52.6813 23.2581 
20012 2 15.2359 -1.61828 13.5115 13.3287 -24.9837 69.9632 
17469 5 19.9364 -1.30131 13.4326 -17.1581 -13.1905 -11.6783 
20017 5 16.2815 -1.21496 12.5395 4.92689 -2.01087 -8.87496 
20020 5 16.2894 2.4578 12.6312 3.33295 -4.35609 -4.62523 
17477 1 18.4308 4.50707 12.7514 26.8792 20.0418 63.8696 
17458 1 18.218 0.637135 12.871 20.8283 12.9194 20.6348 
17464 5 19.9587 2.61017 13.0923 3.49852 -12.2902 -13.3187 
20014 3 15.3481 -0.927596 14.9324 -13.9763 -10.4648 26.6192 
20013 2 15.2355 2.86552 13.6686 25.2882 -22.5962 50.8065 
20089 4 15.4847 4.41259 13.8828 -11.4014 18.1076 -17.8721 
17460 2 21.2934 2.30374 13.8302 53.7612 -55.1967 94.9579 
17386 2 21.2555 -0.760946 14.0881 49.6288 151.077 38.7752 
20019 3 15.2991 1.95863 14.9707 -17.6995 1.59039 46.5565 
17466 6 17.8375 0.847115 15.499 -17.0588 -15.7742 28.7772 
17494 7 16.9334 1.1055 15.7571 4.26838 2.07853 -8.08377 
17493 7 18.4307 1.51226 16.0131 -1.42239 5.77508 -3.43765 
17471 6 19.2516 2.68502 16.8173 -43.4719 -37.0367 -29.5744 
17510 7 20.0526 2.82682 16.2424 11.0795 -0.165441 -7.01766 
17509 7 19.6433 2.64978 17.7189 -1.86494 -1.53387 -17.1267 
17463 4 21.2166 0.803669 14.1626 -10.5435 -18.4433 -22.8864 
17508 6 18.5433 4.91364 15.4402 -6.37956 -18.3475 31.5645 
17473 7 18.779 4.32458 16.1735 -0.224273 7.85012 -4.1403 
14959 7 20.6113 -0.489412 18.383 1.7938 5.09437 0.284333 
14960 7 20.5203 0.341637 17.21 4.06231 2.91787 -2.78638 
17391 3 21.5995 -1.60153 15.3241 -20.7776 -31.8263 -37.0862 
17825 9 21.493 -1.04634 16.1119 -4.53938 2.67513 -94.1456 
17462 3 21.5111 2.99317 15.2421 -25.462 -17.3791 19.9416 
14918 6 21.2274 -0.0906656 17.7566 11.9926 -16.0246 -3.01047 
17583 7 16.1082 4.85965 18.9193 5.54156 2.5286 -4.03812 
17826 9 21.523 3.97773 15.1505 -2.58719 26.1539 6.9495 
17544 6 16.9911 4.50276 18.7408 -17.7216 -11.5687 5.18795 
17582 7 17.1497 4.48119 17.7731 3.1301 2.49569 1.64585 
17456 7 16.0139 -0.0539914 18.7089 18.8343 13.211 -2.96753 
17457 7 17.1307 0.740472 17.9545 2.82705 -0.786819 -5.5083 
17503 6 16.8672 0.450844 18.8067 -18.7748 -9.08603 -2.99836 
17472 7 19.3814 5.52186 15.3236 12.6352 5.07787 -2.4595 
17499 3 20.6797 2.21025 18.9558 -13.7738 -23.0089 -1.87901 
20366 9 15.3048 3.33771 18.9305 7.86595 1.92509 -13.8059 
14905 7 22.3641 5.18149 18.3565 3.14458 2.57768 -6.5428 
15272 9 27.1699 -1.69925 15.8685 -1.69409 10.2952 -22.7141 
12752 9 29.3643 4.60538 18.4371 -31.1161 3.42059 -6.06597 