ITEM: TIMESTEP
290000
ITEM: NUMBER OF ATOMS
25517
ITEM: BOX BOUNDS pp pp ff
-3.8959205201285124e-01 6.0088135642019459e+01
-1.9452389155355383e+00 5.9115524189537531e+01
-1.2206056431032383e+01 1.1390111600702880e+02
ITEM: ATOMS id type x y z v_stressx v_stressy v_stressz 
25292 7 5.89857 3.03966 7.5916 -2.36794 -8.46557 -6.09637 
25293 7 5.98077 1.53035 7.7064 -1.83929 -5.86973 -1.84483 
25252 6 5.35811 2.25094 7.51796 -6.42499 -3.27317 0.140224 
25287 5 0.61597 0.755495 10.7564 7.77936 -1.58689 5.08788 
25283 5 2.94291 4.2301 9.842 11.1721 6.65124 -12.8668 
25281 4 1.3887 2.44216 9.07367 -13.1102 1.79736 -17.2919 
25280 4 1.07853 5.00258 8.46007 -12.8502 -8.55545 -6.9166 
25277 2 1.45655 3.94107 9.49571 51.4912 39.7886 80.0086 
25215 5 2.99957 0.588718 9.72621 -14.644 -10.0422 -11.5696 
25209 2 1.59287 0.935181 9.44522 7.41865 -56.0592 74.4792 
25188 1 4.8243 2.58953 9.97468 5.47629 1.76084 14.1447 
25214 3 0.796635 0.0137284 8.44439 -1.80242 -4.34042 1.19348 
25282 5 0.520916 4.37471 10.6565 -15.461 -14.4784 -17.8273 
25458 9 1.40812 -0.435335 7.83607 0.0297538 2.06485 1.70313 
25206 1 4.52732 -1.17961 10.115 35.0921 38.1769 20.2751 
22660 5 6.52822 0.875659 10.2203 -1.48807 -5.7767 -15.6595 
22735 5 6.623 4.87348 10.5536 2.31947 -9.33201 -15.0338 
25505 7 1.83983 5.65447 5.50835 -0.0546625 -0.156434 -0.295911 
22662 3 7.17647 4.29529 8.22411 -12.3407 -23.204 -18.4467 
22658 3 7.30314 0.346889 7.89736 -15.0801 -15.3282 -11.555 
22905 9 7.65252 -0.485879 7.46068 0.0241445 -0.411447 -4.47116 
22906 9 7.50322 4.57024 7.35908 -2.66705 4.37035 9.92853 
20115 7 11.1372 2.292 6.49758 0.449326 -0.00596775 -1.14285 
22656 2 7.7059 0.365729 9.40584 22.8696 74.5474 62.2637 
20116 7 12.1136 2.88755 7.40659 19.7647 6.71936 2.78446 
20078 6 11.1398 2.86581 7.23657 -16.0496 -11.6897 1.52655 
20106 3 13.741 4.72985 7.46261 -16.0299 -11.1504 42.1015 
22657 2 7.60419 5.1024 9.41016 55.0821 -15.532 21.1972 
20036 3 13.619 0.47741 7.57109 -16.7802 -19.6363 16.5231 
20107 4 13.6664 2.6833 8.8298 -18.0583 -14.0627 -33.639 
20104 2 13.8784 4.18168 8.97251 31.9705 36.6343 93.6365 
20031 2 13.7132 1.1448 8.96008 62.9423 164.518 15.5764 
20108 5 12.6966 4.70757 9.81807 14.8231 11.9608 2.23238 
20112 5 12.4932 0.846951 9.91178 10.7892 -0.570896 5.75888 
22654 1 10.4859 2.78478 9.68506 11.5021 10.6123 10.2865 
22661 5 9.03983 1.11007 9.56315 -7.56789 -6.74062 -16.0548 
22663 5 9.10858 4.7108 9.73761 4.21599 -12.8451 -14.8589 
22563 1 10.886 -1.13469 10.1589 -1.24351 -0.504853 -29.6689 
22659 4 7.7627 -1.12896 9.68153 -9.60507 -34.648 -34.5208 
22629 6 11.3751 -1.065 7.76545 -16.8422 4.91679 2.20008 
22669 7 11.9249 -0.207968 7.44815 1.3156 5.23437 -1.24127 
20352 9 13.8605 1.22514 6.87465 0.757193 12.5502 14.6493 
20189 7 14.2777 3.18994 6.51456 0.326924 13.5508 8.44715 
20353 9 14.543 5.23857 7.22704 7.78975 13.2341 16.8671 
20148 6 14.5671 2.45013 5.87332 0.142867 0.0560019 0.0951338 
22740 7 11.2703 5.5881 6.8279 3.29994 1.49629 -1.10384 
22738 7 8.76742 5.41578 5.90114 -0.682104 0.710501 -1.31448 
22701 6 7.85394 5.37142 5.69312 0.439826 -0.355277 7.80671 
22739 7 7.886 4.86164 4.87022 -0.0109449 0.0204114 0.0084287 
22670 7 11.9327 -1.89861 7.72342 1.0672 1.7044 -5.13728 
20188 7 15.4435 2.20345 6.22553 0.819932 -0.131591 0.0841427 
20037 5 15.0057 0.565552 9.66218 -1.01674 -7.00065 -13.3717 
20118 7 17.8719 2.63796 7.70159 5.66223 -0.304656 -3.0422 
20117 7 17.6995 1.17882 7.44002 3.02897 2.58344 -4.81898 
17799 9 19.455 -0.241526 7.33338 0.33827 6.63981 17.8794 
20077 6 17.1284 2.01775 7.60787 -23.2358 2.19827 27.2338 
17484 3 19.536 4.02271 8.03155 -4.28962 -2.55027 -2.25417 
20109 5 15.1822 4.68195 9.53593 -5.92352 -7.30151 -16.8463 
17480 3 19.3808 0.510653 7.95906 -16.5456 -32.0781 11.4659 
17478 2 19.7385 0.13463 9.405 33.5649 35.1401 50.2463 
17479 2 19.7269 4.90401 9.32133 47.671 112.529 60.2426 
17485 5 21.0972 4.45706 9.83859 5.00578 -15.8115 -16.4466 
17483 5 21.125 0.57616 9.92672 4.94178 -10.2413 -13.7931 
17482 5 18.7273 0.612358 10.4453 0.679906 -3.70577 -6.59761 
17560 5 18.5746 4.39351 10.2378 -1.28192 1.72254 -11.3919 
20011 1 16.7883 2.43064 10.1919 50.7459 45.9942 51.8733 
20028 1 16.5417 -1.33752 10.1131 23.885 16.9036 10.7988 
17481 4 19.613 -1.37684 9.30614 -12.583 -19.4471 -38.2663 
17800 9 20.2785 3.41394 7.96437 0.3319 -2.8912 -5.47214 
20002 6 16.2002 -1.21507 7.53432 -10.4456 -7.66893 13.569 
20044 7 15.5857 -0.449442 7.68688 4.36938 8.62349 -2.81805 
20043 7 16.3516 -1.12082 6.60323 0.284617 0.206146 -0.849277 
17377 6 19.8786 -1.6773 6.3322 0.24595 -0.141859 -0.0108145 
17415 7 20.5742 -1.92657 6.98281 2.88783 2.51524 2.07474 
14864 7 23.6314 3.83266 7.75133 5.60219 -4.67998 -1.41402 
14825 6 23.2988 2.969 7.82153 -9.32523 -3.87223 1.24816 
14863 7 24.1611 2.53617 7.90018 3.8824 -1.28766 -0.5304 
17476 1 22.5994 2.5974 10.2549 -65.7467 -40.7427 49.1409 
14928 3 25.5679 4.59148 8.20809 -31.4689 -50.0421 -46.5355 
15246 9 24.7065 0.00657495 8.04332 8.00371 10.849 20.1293 
14856 3 25.5405 0.383335 8.16649 -12.614 -14.9018 10.7235 
14929 4 25.6618 2.47021 9.27814 -18.0034 -35.2963 -34.715 
14851 2 25.7726 0.935136 9.6021 20.7758 -188.319 77.6371 
14926 2 25.8313 3.99121 9.61155 29.3159 146.357 89.3941 
14857 5 27.172 0.513951 10.0212 -9.68819 -11.7601 -20.9003 
14931 5 27.2703 4.30837 10.1061 -28.2083 -11.4234 -17.7234 
14832 1 28.9014 2.41808 10.4207 15.4538 12.4606 57.4187 
14930 5 24.8007 4.37565 10.6576 12.4216 -4.43527 -12.4765 
14934 5 24.7275 0.511689 10.6576 4.68797 -3.90625 -0.259019 
17384 1 22.8636 -1.16741 10.5973 -2.53215 4.15455 -23.4106 
14848 1 28.7231 -1.43222 10.2624 14.7701 19.8405 -29.6244 
14898 6 29.1786 2.45721 7.88738 -13.7695 -15.4071 6.12807 
15247 9 26.3681 4.66526 7.72718 -1.61177 -1.09176 -15.307 
14826 6 28.1456 -1.3901 7.71182 1.27509 -3.61201 27.182 
14861 7 27.5228 -0.59177 7.7367 5.00638 5.86418 -2.25282 
14862 7 28.7608 -1.17174 6.9734 0.155509 0.0392434 -0.0653973 
17565 7 23.8543 5.62398 7.62904 12.5413 3.74203 -1.5525 
17491 7 23.3409 -0.830267 7.25909 0.0991948 0.0737612 -0.452007 
12347 6 29.4782 5.3719 8.00631 -15.3778 -7.20642 4.07696 
14939 7 29.2544 3.33895 7.63004 0.453804 -0.925633 -1.20554 
17492 7 24.1978 -1.77871 8.08715 8.22315 2.48669 -6.23728 
17450 6 23.2929 -1.42611 8.02021 -21.6589 -7.01102 18.8985 
25291 7 5.22591 6.53661 7.32751 1.21959 1.67777 -3.08509 
25290 7 3.82687 6.55555 6.86919 -0.661383 1.70016 -4.36331 
25253 6 4.33607 6.71227 7.63615 -9.76462 -11.7932 1.77889 
25517 7 1.84279 7.29014 5.50902 -0.0246555 -0.0528554 -0.55322 
25313 6 1.21101 6.45671 5.78137 6.01887 -5.69793 30.3647 
25362 7 1.19888 10.608 6.31952 -0.0159061 -0.020525 -0.0177074 
25275 1 4.36027 6.50413 10.1833 4.27172 13.3218 8.08844 
25278 8 0.639374 6.49188 7.63496 53.0109 32.7157 9.96925 
22958 9 3.89074 10.3239 7.2783 -3.45919 1.49185 0.310601 
22732 3 4.70032 10.3548 7.96195 2.28917 -12.681 13.4987 
25359 5 0.701437 8.49354 11.0939 -10.2134 -10.681 -16.2868 
25356 5 3.08021 12.146 10.2169 9.48232 0.125089 -12.674 
25355 5 0.535314 12.2845 10.6518 -2.48395 -5.34879 -8.48683 
25354 4 1.48185 10.2856 9.54639 -13.8708 13.2674 -26.8671 
25353 3 1.39194 12.6945 8.41831 -11.1906 -7.00994 4.99051 
25351 2 1.63225 11.8296 9.72046 41.507 48.5961 66.093 
25286 5 2.93236 8.28049 10.0288 -5.83208 -16.2564 -19.1089 
25285 4 0.892127 7.85648 8.74192 -20.8855 -18.9617 -5.3646 
25279 2 1.49492 8.71367 9.83417 17.387 95.8091 77.2519 
25259 1 4.86194 10.2149 10.3927 8.38999 9.43029 59.2168 
25327 6 1.60703 9.7444 6.34125 2.31823 1.44312 -0.8352 
25363 7 1.38635 9.50649 7.2315 0.529186 2.68406 1.48961 
22807 5 6.5607 12.2849 10.8694 -15.5743 -14.3999 -16.6024 
22730 5 6.65234 8.34528 10.5398 -4.65673 -14.8354 -13.2919 
22726 8 6.48614 10.4372 7.49213 -1.39738 18.0506 -25.744 
22761 6 7.05704 10.8316 5.66761 1.74868 2.48463 6.79654 
22733 4 6.9844 11.7221 8.61372 -11.0319 -12.7806 -2.8795 
22728 4 7.23016 9.05362 8.29312 -12.981 -20.353 -5.80983 
22953 7 7.91026 10.1976 5.3838 -0.0660303 0.100945 -0.651299 
22965 7 7.33207 11.8331 5.45166 -0.0484165 0.142307 -0.276097 
22741 7 11.5 7.01103 7.05421 2.61844 -0.0179193 -1.4973 
22700 6 10.8104 6.36788 7.23855 -16.2578 -2.27726 17.8154 
22636 1 10.9188 6.69179 9.82281 4.69812 9.56142 11.0218 
22729 4 7.48133 6.61374 9.11192 -11.47 -8.64826 -27.4931 
22668 7 10.5831 8.59932 7.42923 1.92708 4.38615 -3.1098 
22725 2 7.70374 8.13304 9.39568 27.9135 32.1835 97.1066 
22727 2 7.53968 12.6129 9.75953 17.082 133.08 78.186 
22630 6 10.7174 9.56513 7.55044 -8.23492 0.642943 5.20302 
22667 7 11.6785 9.56 7.58776 1.28259 0.749444 -1.29222 
20110 3 13.3722 8.00482 7.87861 -11.1745 -1.239 -4.03927 
20176 4 13.3404 12.979 8.33811 -6.68547 -6.99033 -4.1876 
20177 4 13.5478 10.5013 8.95979 -6.48352 -0.349902 -16.4735 
20173 2 13.7057 11.9908 9.40771 34.858 -4.05826 79.0235 
20105 2 13.7244 8.93675 9.12343 -0.871212 7.83572 85.9937 
20178 5 12.5598 12.2564 10.4158 -8.10292 -12.6296 -22.7261 
20183 5 12.8988 8.51128 10.3587 -3.54915 -11.1888 -7.27738 
22734 5 8.97942 12.4092 10.1072 -12.376 -12.4899 -16.9633 
22723 1 10.5486 10.4168 9.97488 -2.85581 4.2984 9.05726 
22731 5 9.11607 8.33188 9.85191 -15.7779 -24.4838 -21.6634 
20354 9 13.8366 7.1662 8.02076 -1.0187 -12.2586 -25.2761 
17489 7 15.3685 7.53149 7.27379 -6.19851 -2.25255 -3.74514 
17490 7 16.4114 7.08597 6.51817 -0.225182 0.0346637 -0.309806 
17451 6 15.9423 6.78743 7.29642 -18.7382 -17.3521 17.3052 
17555 4 19.5148 6.40419 9.24816 -10.969 2.55464 -18.3876 
20102 1 16.4765 6.46221 9.86905 11.2622 0.314025 18.3106 
20179 5 15.0791 12.3713 9.86379 2.69004 3.65534 -11.5918 
20111 5 15.0953 8.51182 9.52882 -26.2377 -13.9787 -14.4539 
17802 9 19.4832 11.878 7.51898 -0.106295 -0.0977609 0.161773 
17554 3 19.6317 8.68088 7.9737 -1.92412 -5.38256 6.10888 
17801 9 19.3812 9.57046 8.10065 0.674358 12.2307 6.40995 
17558 3 19.3121 11.5602 8.35726 -4.30768 -2.11386 -0.304584 
17552 2 19.7279 7.97853 9.40881 25.9824 58.8089 60.8613 
17553 2 19.7446 12.5897 9.5152 44.3252 43.0573 68.5604 
17559 5 21.2085 12.1329 9.83297 6.66897 -0.434009 -10.6701 
17557 5 21.1128 8.33065 9.93016 0.795305 -11.7814 -15.9721 
17556 5 18.49 8.44005 10.194 12.4733 -4.03798 -7.40913 
17631 5 18.754 12.2185 10.6826 1.77152 -5.58811 -4.07743 
20084 1 16.8199 10.2664 10.3615 -11.1882 -4.22124 -1.191 
17566 7 22.7737 6.49197 7.09029 0.094981 0.018761 0.053249 
17525 6 23.2369 6.30614 7.97014 -30.0473 -5.96232 17.1044 
15249 9 26.4199 12.3989 7.50271 0.849277 0.692484 0.260732 
14924 1 28.8784 6.30371 10.2599 24.5581 20.8327 -19.4833 
17459 1 22.8153 6.36449 10.4136 -83.914 -67.8639 22.1451 
17550 1 22.6813 10.1773 10.109 18.9628 17.9079 8.5394 
15248 9 25.0074 7.30471 8.25379 6.71237 8.88764 8.68296 
15002 3 25.5553 12.1132 7.86039 -4.91847 -8.9146 8.67567 
14932 3 25.8534 7.69566 8.37038 -4.64098 -4.21323 1.38815 
15003 4 25.6929 10.0578 9.40228 -9.14212 -5.87436 -23.0142 
15000 2 25.8234 11.5586 9.33827 30.3701 102.963 72.0298 
14927 2 25.9265 8.52626 9.67582 40.0569 67.207 71.2124 
15005 5 27.2586 12.0307 9.65026 -1.88791 -12.716 -16.7066 
14933 5 27.3368 8.19806 10.2714 9.53704 -13.897 -17.1226 
15004 5 24.794 12.1885 10.2281 1.33663 3.37469 -11.3779 
14907 1 29.0423 10.186 10.3202 23.5949 18.8295 22.7232 
15008 5 24.7476 8.17989 10.6591 15.6673 -0.406222 -2.26702 
14899 6 29.4402 9.94521 7.67407 -3.25844 0.0162326 5.26823 
17637 7 24.0129 13.1402 7.48134 1.6137 0.652703 -0.169488 
25427 5 0.471403 16.2254 10.9577 6.1538 -3.746 -4.19157 
25424 5 3.05777 19.7432 10.2643 -15.0661 -6.37807 -9.43599 
25423 5 0.62854 19.9386 10.7649 4.10322 -4.26166 -9.63449 
25422 4 1.53223 17.8586 9.5283 -9.70578 7.01303 -13.8757 
25421 3 1.35286 20.1653 8.46116 -3.25681 -2.58511 -0.148294 
25419 2 1.68921 19.4163 9.80763 -41.0636 140.24 63.6055 
25358 5 3.0433 15.9649 10.3935 6.17157 -1.2673 -11.1372 
25352 2 1.62447 16.359 9.9389 56.6318 3.43156 34.122 
25333 1 4.76049 17.9652 10.8964 -5.25318 13.2879 -19.2831 
25357 3 1.27516 15.4524 8.77037 -12.0524 -18.4026 20.2369 
25460 9 1.6173 15.8283 7.87293 0.0897819 0.367722 4.2946 
25349 1 4.58657 14.1062 10.6957 6.92399 16.4228 -14.78 
22803 5 6.49129 16.0975 10.8756 1.42612 -0.751247 -0.682398 
22875 5 6.46084 20.071 11.1158 20.0719 8.05337 11.1958 
25459 9 1.48999 13.6574 8.56205 -1.07578 5.15045 -4.56715 
22801 3 7.03055 16.5942 8.55987 -2.27294 -6.96758 4.21642 
2179 7 -0.387305 20.8468 8.22815 14.4489 2.21146 -6.28479 
20312 7 13.7076 28.1999 15.9736 -0.301878 8.24266 1.98174 
22805 3 7.32975 19.3599 8.91011 -8.71487 -8.88499 25.2412 
22908 9 7.54595 19.9046 8.12021 0.0137362 0.263136 6.55996 
22774 6 7.84223 14.1301 6.46407 2.01479 1.23832 1.83494 
22907 9 7.21638 17.5067 8.66763 -0.035541 20.2981 1.84561 
22800 2 7.69826 20.1918 10.1825 71.6818 58.4682 37.0155 
22810 7 9.52718 17.6319 7.67339 -2.03229 0.964337 -2.00594 
22775 6 10.3724 17.5576 8.1234 -18.1044 -9.18899 6.41217 
22811 7 11.0269 17.744 7.42304 6.08828 1.06987 -1.31526 
20249 3 13.6146 20.1923 8.5115 -17.7536 -16.0252 19.4461 
22799 2 7.50164 15.6895 9.76752 1.18304 22.268 70.9789 
20181 4 13.1648 15.598 8.7498 -9.76556 -32.0887 -12.0597 
20250 4 13.59 17.8559 9.69511 -14.13 6.39853 -28.1209 
20247 2 13.6446 19.4223 9.89672 3.78165 29.3143 68.2991 
20175 2 13.7411 16.3389 9.95052 45.3754 117.466 88.9172 
20255 5 12.7826 16.0392 11.1348 -3.1767 -11.7496 -16.8457 
20251 5 12.5994 19.887 10.8751 -0.924716 -0.0689945 10.8582 
22797 1 10.5866 17.8329 10.6706 3.76561 -1.43854 23.2214 
22804 5 8.85928 16.0465 10.2629 -4.47511 -11.3261 -14.3743 
22806 5 9.15709 19.6726 10.6518 26.373 -12.4349 -11.883 
20209 6 12.874 15.0323 5.7533 0.4694 -0.374262 1.52221 
20174 8 12.7095 14.4625 7.54514 27.4797 11.1541 -54.1928 
22802 4 7.35344 14.1712 9.46207 -20.8729 9.27622 -28.6886 
22707 1 10.7485 14.2517 10.2767 12.7808 10.686 6.42583 
20180 3 10.8086 14.0423 7.95232 18.14 -8.93731 5.09844 
20260 7 13.0324 18.8856 6.99744 0.137523 1.34082 1.24006 
20261 7 12.9162 17.3666 7.33817 -0.510927 10.6692 5.42063 
20401 7 13.4229 15.9899 5.62814 -0.159719 0.313184 -1.28379 
20406 9 10.0189 14.4108 7.4707 -1.24635 2.87511 -2.45166 
20413 7 11.9327 15.1884 5.26927 -0.0683328 -0.0244817 -0.43904 
20222 6 12.7014 18.0477 6.67459 -0.757592 0.693691 -0.942368 
22813 7 7.7456 15.0607 6.62462 -0.0696299 -0.0477043 0.0659375 
22812 7 7.44152 13.8113 7.30537 0.749082 1.46579 6.50366 
17861 7 18.0327 18.1656 5.18632 -0.0413343 -0.0257047 -0.195539 
17849 7 19.1146 19.332 5.5722 -0.0518135 0.152827 -0.56438 
17657 6 18.7692 18.3451 5.88217 -4.90087 -2.70357 15.1094 
20252 5 14.9691 19.7344 10.5394 -8.57226 -13.6486 -17.7162 
20182 5 15.2166 16.0409 10.213 -3.9227 -20.6212 -13.9896 
17622 8 18.5634 18.0799 7.75046 32.3607 28.205 -13.317 
17854 9 15.9449 18.6012 8.0719 -0.294481 2.0514 -3.22068 
17628 3 16.7563 18.0742 8.25458 4.03127 -10.1004 9.34505 
17624 4 19.3217 16.6826 8.46567 -7.89938 -11.625 -3.93302 
17629 4 18.9827 19.4332 8.85904 -13.8969 -12.4273 0.953734 
17621 2 19.6951 15.6526 9.54627 47.4019 95.6756 80.9071 
17623 2 19.5501 20.2671 10.0023 54.4323 26.5075 74.0319 
17630 5 21.0316 19.7719 10.2793 12.4624 -2.55547 -14.8754 
17627 5 21.1919 15.89 9.96206 0.90219 -17.7808 -16.3167 
20155 1 16.8424 17.9752 10.6946 2.6963 10.6411 -9.68738 
17626 5 18.7672 15.8963 10.7355 -8.89538 -8.70573 -11.1251 
20171 1 16.7158 14.1373 10.3208 5.35298 6.72987 -7.27867 
17625 4 19.606 14.0957 9.12525 -6.23297 7.86722 -11.5488 
17564 7 21.4906 17.2833 7.58657 -0.550276 1.59719 -1.07533 
17703 5 18.6795 20.0258 11.2014 -15.5165 -12.504 -20.35 
17709 7 19.905 20.6273 7.34679 2.94584 4.96895 4.43206 
20259 7 15.568 20.8847 8.4035 12.1976 3.542 -2.36105 
17526 6 22.4132 17.452 7.70597 -7.76691 -6.82057 17.4358 
17563 7 22.8092 16.6576 7.3521 0.280684 0.365786 -1.84864 
17619 1 22.5682 17.9268 10.3236 11.4629 12.8621 -14.5719 
15250 9 25.4259 16.554 7.3496 3.25706 4.20835 70.5034 
15006 3 25.6058 15.7572 7.92658 -17.3713 -12.2679 55.4269 
15072 4 25.3173 20.4252 8.40544 -13.1855 -7.96868 -3.18388 
15073 4 25.9599 17.9542 9.15621 -16.1546 5.87345 -35.2966 
15069 2 25.8295 19.4844 9.52152 48.0814 197.249 67.8987 
15075 5 27.2671 19.8707 9.91392 4.81423 -4.36036 -14.3336 
15001 2 25.8934 16.4473 9.39988 32.6268 22.2926 32.6388 
15007 5 27.2951 15.9854 9.7832 -0.701718 -10.5435 -15.6547 
14980 1 29.1857 17.8209 10.1444 -13.1587 -20.7558 15.781 
15074 5 24.8028 19.6389 10.6176 -6.01287 -5.31709 -18.5113 
15079 5 24.8396 16.1163 10.4638 8.44123 -3.82027 0.709865 
12533 7 25.4571 18.3754 7.23091 -0.338672 4.50834 6.13694 
17532 1 22.9834 14.1035 10.1761 9.39206 12.5682 8.5021 
14998 1 28.6373 13.9834 10.0874 20.0311 25.2234 13.6231 
12492 6 25.1645 17.9196 6.43544 -1.28077 -1.72177 -0.939782 
12532 7 24.2391 17.8074 6.45162 -0.0688642 0.0125415 -0.222641 
17636 7 24.2982 14.6547 7.77674 3.17125 -4.68652 -4.49006 
17597 6 27.3956 19.7327 6.47718 -16.435 -1.13476 0.727912 
17635 7 27.0344 19.9354 7.31032 6.37683 1.249 -2.15587 
17596 6 23.5563 13.9987 7.66239 -11.4324 -1.59869 4.46068 
14974 6 28.7308 14.0837 7.53935 -5.85581 -10.9596 7.30322 
17634 7 26.9707 18.9124 6.11254 0.290009 0.571205 -0.147688 
15084 7 28.6931 18.2675 6.90767 0.607791 2.78028 -1.50239 
15012 7 28.1952 14.867 7.30744 1.78794 1.81075 -1.73312 
15044 6 29.2899 17.8272 7.55162 -18.5446 -15.4721 14.1594 
15011 7 29.5706 14.1102 6.99075 5.07095 0.885572 -0.250776 
25461 9 1.63963 21.1191 8.56579 -0.402299 9.04268 -5.94587 
25417 1 4.459 21.7465 10.9217 -16.7282 -19.7157 -17.8097 
24923 5 0.754769 27.5218 10.9484 5.95761 1.86627 -1.70707 
25425 3 1.35108 22.98 8.77836 -10.8306 -8.47604 18.0179 
24927 5 0.559259 23.61 11.1153 15.4687 -1.45217 8.01605 
25426 5 3.10363 23.8017 10.4009 3.65149 -9.29669 -8.99252 
25420 2 1.64879 23.9265 10.0018 36.6444 98.1112 57.7502 
25401 1 4.97038 25.5329 10.7242 12.242 5.10725 7.25811 
24924 5 3.18735 27.1766 10.4054 -6.30111 -6.25658 -13.7956 
24922 4 1.38256 25.4386 9.75254 -16.7038 10.2409 -16.8061 
24919 2 1.7823 26.9563 9.95451 2.53169 145.358 59.809 
24921 3 1.55556 27.7248 8.56562 -3.30974 -0.94127 8.39656 
25462 9 1.60156 23.3783 7.96981 -0.0534252 0.120244 1.81816 
22871 5 6.64021 23.6959 10.9095 4.73946 -4.72738 -4.49619 
25451 9 2.36751 27.8615 8.13061 0.0548502 0.482036 1.54748 
22375 5 6.78156 27.3777 11.2762 2.2624 -3.88671 -3.84115 
20355 9 13.7553 21.1037 8.67011 -2.50056 21.3182 -0.811208 
22873 3 7.36095 26.8242 8.94079 -1.89016 -2.97263 22.8943 
22910 9 7.83453 27.1872 8.16884 0.019795 0.303363 5.19743 
22881 7 10.5673 22.2037 7.78641 0.176445 0.152778 -0.581461 
22880 7 12.0072 21.7432 8.22322 12.1223 4.46172 -4.44296 
22869 3 7.56442 24.0265 8.5961 -0.882073 -1.30805 0.725145 
22842 6 11.0399 21.8185 8.50693 -11.6974 -8.70845 2.07151 
22909 9 7.42422 24.9915 8.72358 -0.263072 9.50208 -0.655886 
22870 4 7.80675 21.6814 9.76784 -9.96014 13.0447 -14.2399 
22781 1 10.8959 21.6885 11.0129 -26.1486 -19.3678 23.6644 
22868 2 7.76545 27.7412 10.1816 38.5903 98.192 36.6277 
22867 2 7.78902 23.2324 9.92461 55 190.545 71.1529 
22381 7 12.0152 26.341 8.4485 11.17 9.22324 -1.2969 
20253 3 13.4682 23.4016 8.82795 -29.8589 -27.9374 6.87652 
22380 7 10.8121 26.2531 7.54966 0.0750814 0.106741 0.0988177 
22342 6 11.2091 25.8188 8.3988 -19.5367 -2.8389 29.5977 
20317 3 13.3219 27.8427 9.08682 -10.5091 -13.2433 -8.44723 
20248 2 13.7696 24.0294 10.2263 9.42195 4.59212 109.391 
20318 4 13.624 25.5447 10.0164 -29.3488 -19.1766 -42.8407 
20315 2 13.7788 27.0543 10.3348 51.4379 -14.5629 79.9809 
22865 1 10.6865 25.3992 10.9226 12.5436 11.0857 28.7695 
22872 5 9.17462 23.6871 10.462 5.27954 -15.6598 -13.7891 
22874 5 9.24947 27.6706 10.5948 6.61854 -9.77644 -9.42343 
20356 9 12.5954 23.6209 8.49206 10.3546 3.92179 -9.87041 
25431 7 14.1509 26.52 7.83751 1.09905 4.75508 6.68526 
20323 5 12.8525 23.6161 11.429 2.2069 -7.9346 1.13603 
25430 7 14.093 24.9955 7.86813 1.72406 4.76773 10.2848 
25395 6 14.4016 25.7329 7.27378 -0.141233 0.0891904 -0.155018 
20258 7 15.2294 22.3163 8.12146 1.3627 0.138731 -1.41277 
20223 6 16.0015 21.7513 8.2238 -7.30533 -1.23492 9.12175 
20245 1 16.5342 21.695 10.8038 16.5984 21.2942 37.3729 
17698 4 19.4354 21.7483 9.56107 -12.2682 -3.99781 -28.7598 
20320 5 15.2214 27.4242 10.856 4.43905 -11.2444 -14.945 
20254 5 15.1801 23.5949 10.561 -15.954 -11.4422 -20.1351 
20329 7 17.2434 26.6466 8.28058 4.01614 3.22725 -3.68065 
20328 7 16.0419 25.8023 7.61998 1.70479 -0.00876346 -0.0987537 
17803 9 18.6355 24.4714 8.19816 9.1661 9.24664 -0.596252 
20290 6 16.6573 25.8385 8.42977 -27.1711 -4.89762 8.33789 
17697 3 19.4666 23.9299 8.24968 -7.60796 -15.6129 7.39898 
17701 3 18.7572 27.5768 9.07536 -11.6484 -29.7664 -3.50836 
17695 2 19.6311 23.298 9.64847 2.26363 6.26467 78.1199 
17696 2 19.6976 27.9701 10.2409 33.4875 101.375 90.5426 
17700 5 20.9899 23.6351 10.1729 -17.8396 -7.83541 -18.9115 
17702 5 21.0953 27.3466 10.1236 7.93951 -13.6263 -20.4735 
17699 5 18.7076 23.7838 10.7613 -3.37699 -4.27489 6.04759 
20229 1 17.0048 25.6018 10.9426 18.8916 14.5432 -7.63465 
17708 7 20.0702 22.1005 7.0657 -0.228796 1.40527 0.805809 
17670 6 20.1319 21.2549 6.64674 -0.761954 0.84268 -1.32513 
17707 7 20.7868 25.2363 7.6314 4.6979 4.93013 -0.0423757 
17706 7 21.1787 26.5559 8.43819 0.184841 6.53763 6.92507 
17671 6 21.5933 25.7538 7.94146 -0.521125 -4.85914 4.9837 
17804 9 18.1596 28.2261 8.79174 4.35781 -0.325564 -3.05222 
15302 9 22.12 22.0167 7.2663 -10.7435 2.2945 -0.587608 
15082 7 28.9341 21.4367 6.98265 -0.10324 1.91742 -2.9853 
15309 7 26.1711 21.1856 5.56242 -0.0507659 0.354517 -0.582168 
15297 7 25.7773 22.9358 5.36905 0.0251364 0.422374 0.0392213 
15076 3 22.8653 21.7306 7.945 4.97709 -10.3944 6.18421 
15105 6 25.4296 21.9972 5.7434 2.499 2.77464 8.76878 
15067 1 28.5009 21.8246 10.3102 7.68648 14.2259 7.73582 
17603 1 22.8719 21.8054 10.3091 41.8 31.1936 60.9391 
15070 8 24.6898 21.8654 7.53391 8.81931 22.2204 -4.3413 
15157 7 24.761 24.7113 6.5409 0.0942625 1.45785 -2.17858 
17693 1 22.4585 25.6458 10.3024 35.7226 47.0242 70.3265 
15118 6 24.3516 25.0692 5.80024 0.21569 -0.0187716 -0.0816699 
15156 7 23.4675 25.4068 6.08223 0.348117 0.0668542 -0.0146921 
12750 9 28.7793 27.0604 8.02173 -18.1135 -1.29883 -3.44731 
15145 3 25.8709 28.1424 8.32624 -25.3688 -9.89273 24.0134 
15077 4 25.2347 23.1977 8.50469 -14.8838 -21.9308 -12.0687 
15146 4 25.5466 25.6818 9.29943 -7.93742 17.823 -16.0105 
15143 2 25.8227 27.2278 9.63665 34.452 58.4604 41.3314 
15071 2 25.6377 24.1622 9.58877 43.2073 138.166 69.7719 
15078 5 27.0823 23.775 9.8664 3.32309 -1.69881 -12.0226 
15148 5 27.2019 27.5255 10.2775 11.5565 -13.4828 -15.4525 
15051 1 28.9278 25.6837 10.4438 0.460596 13.1915 48.4508 
15147 5 24.7278 27.7419 10.5663 3.42645 -2.30519 -7.83083 
12524 3 29.1596 26.0649 8.01414 -11.3452 -1.37485 8.78497 
15045 6 29.2043 21.7754 7.82857 -18.6307 -11.0845 4.96073 
15251 9 25.5134 27.6474 7.63837 -0.0675254 -0.305774 15.5429 
15151 5 24.6677 23.8201 10.7274 -4.93641 -8.26144 -15.2308 
25272 7 0.482761 4.65721 16.1143 -0.745695 -0.668984 2.10979 
25198 5 4.5419 2.55475 12.6561 -16.6838 -10.2997 -10.134 
25195 5 4.3158 -1.09258 12.7632 -0.767775 -2.87892 3.7436 
25511 9 0.223679 1.97553 15.7309 -26.0174 4.77554 -2.65849 
22635 1 6.05896 0.692999 12.8525 -38.7464 -16.1279 -9.34381 
25268 5 2.06322 2.89899 12.9931 -0.717288 -11.5609 -22.2426 
25258 1 0.250924 4.4912 12.7638 14.4891 7.89466 4.28719 
25207 1 0.476342 0.786529 13.0733 16.7627 42.3296 25.8287 
25191 2 3.47612 3.03985 13.5769 19.666 88.0174 61.4846 
25263 4 3.57926 4.53329 13.9916 -28.4831 3.80119 -36.4474 
25197 4 3.26023 2.0922 14.7531 -12.2215 -29.8031 -14.5892 
25192 4 3.04502 -0.482259 14.848 -7.93787 -14.1019 -6.25802 
25196 3 0.655648 1.02511 15.4121 8.65376 -4.5197 13.1902 
25190 8 2.50563 0.885078 15.8454 -25.6636 -8.6859 -50.7515 
25240 6 3.76291 0.970578 17.3333 -17.6893 -19.8152 1.79238 
25519 7 3.64174 0.258576 18.1304 -1.3637 -2.16369 -14.708 
25507 7 3.63034 1.85529 17.9446 -2.87602 -8.57515 -27.1319 
22649 6 3.93275 4.20015 16.775 -27.3707 -23.9598 -31.3532 
25308 6 0.000114126 4.39896 15.3285 -25.1444 -5.29406 9.86053 
25270 6 1.52103 4.99765 17.8767 -20.7991 -13.6269 -6.07524 
25310 7 1.52107 5.37535 18.8172 -2.64866 8.17421 24.7532 
22655 1 6.37544 4.67075 12.8239 -11.5834 4.51631 -4.65551 
25194 5 1.89442 -1.62182 13.1754 0.408366 -13.0542 -18.2233 
25189 2 3.31878 -1.5892 13.8009 46.5 5.8274 93.9234 
25309 7 2.42741 4.97881 17.503 19.1186 -0.234399 -4.42578 
22683 6 6.2586 0.75755 15.4387 -18.1701 -6.18129 -0.355518 
22684 7 3.77232 3.40696 16.2878 -2.14515 -15.4636 1.59522 
22644 3 6.85614 4.89624 15.2126 23.7063 -11.2547 8.11958 
22759 7 4.56573 4.32342 18.6403 9.83188 2.71495 6.52456 
22685 7 4.01222 4.83443 16.0324 1.13566 1.02827 9.50707 
20062 7 5.7313 1.79956 17.8886 4.65601 -8.26191 -1.95146 
20061 7 5.70634 3.20291 17.7318 12.9182 2.48458 0.234694 
22650 7 6.18451 -0.166532 15.7666 3.44977 8.8855 -3.22594 
20023 6 6.36229 2.46496 17.6963 -6.91813 -18.3484 -2.04509 
22717 6 5.14778 4.90061 19.2213 -24.1817 5.27262 -5.16293 
25472 9 2.11524 3.60262 18.5987 6.5699 7.26801 -113.856 
22959 9 6.35462 5.3544 16.0016 -13.1831 4.51146 -0.254642 
22651 7 5.61863 1.26324 15.9555 9.5034 2.15832 0.881741 
22687 7 4.74591 -0.634791 19.1815 14.2626 5.18586 -8.57172 
25236 7 0.190496 0.963348 17.7253 1.73111 4.19902 4.77021 
25471 9 2.90074 -2.15838 18.8876 9.90536 17.3022 41.2153 
25377 6 -0.118224 8.04029 15.8834 -39.7603 -11.4236 15.3969 
25231 3 2.472 2.84281 19.187 -21.1572 -30.6533 -41.6408 
25227 3 2.74519 -1.25506 19.2917 -16.629 -10.8153 26.4339 
22919 9 7.4402 2.8816 19.063 0.335189 6.25537 -13.5461 
20022 6 13.5937 0.856365 17.9731 -10.3552 -1.85306 24.9612 
20101 7 8.23479 1.08115 16.8091 -0.601172 3.45885 -1.71713 
22931 9 9.6339 -1.08428 15.7066 -1.48415 -0.166251 -90.4615 
22643 5 10.3472 2.57234 12.1955 -2.82376 -4.70029 -8.7287 
20083 1 12.0539 4.57824 12.2941 1.61558 0.134828 21.1951 
22642 5 7.78438 2.32799 12.6693 -1.67588 -8.34968 -19.9244 
22572 5 10.3915 -1.19034 12.4814 -3.70211 -7.90362 -14.199 
22647 5 8.01803 -1.15376 13.3887 4.90717 -12.3137 -18.2369 
20029 1 12.4935 0.818447 12.5759 -18.1237 -14.9509 -11.465 
20095 5 13.8672 2.81253 13.0198 0.15928 -13.8952 -15.4273 
22637 2 9.23854 2.21284 13.1776 48.4187 -70.2813 70.7511 
22565 2 9.47766 -0.798971 13.6553 34.5974 61.3006 52.3262 
22641 4 9.6135 0.790931 13.697 -32.742 -26.2132 -39.0586 
22640 4 9.10375 3.21619 14.2882 -10.4092 -21.9586 -16.7154 
20060 6 12.2714 0.806516 15.1682 -10.5406 -9.59 8.28289 
20025 7 11.2943 0.654613 15.1859 14.4231 4.95156 -1.60368 
22638 8 8.69964 4.51105 15.3868 25.0478 13.8474 13.577 
20024 7 12.5509 0.287846 15.9166 0.143121 -0.689549 -3.68562 
22688 6 9.59096 3.68827 16.9773 4.87577 -1.6407 30.6992 
20130 6 9.0437 0.606285 16.696 -10.2198 -13.1629 -5.34378 
20016 5 13.8732 -1.10957 13.0216 4.12809 -14.8239 -18.8483 
20100 7 9.12719 0.719384 15.7369 0.786489 -0.00566638 13.2612 
22967 7 9.8406 2.69504 16.8005 -4.01537 -11.1154 -10.4647 
22571 3 10.069 -1.4339 14.9547 -27.0271 -20.7218 -19.0385 
20064 7 13.9062 -0.0342686 18.2943 1.96344 16.7085 0.951923 
22918 9 9.19048 -0.720393 19.0132 7.93202 3.43908 10.3888 
20096 6 10.9292 0.687627 18.8113 -15.7804 -11.8952 2.61682 
20135 7 11.8771 0.788313 18.3189 29.0717 2.74366 0.170907 
22955 7 8.93275 3.60312 17.8363 1.91056 0.479855 -10.4034 
20134 7 10.3259 0.826193 18.0448 1.53672 3.25555 6.61934 
20366 9 14.2211 2.11612 19.2239 3.55943 7.38053 -6.1546 
20051 3 14.7272 -1.58645 19.1876 -19.7314 -45.2697 -10.6104 
20063 7 13.9512 0.870121 17.0609 -0.48852 0.495704 1.588 
20131 6 11.6222 4.44007 19.1526 -9.85642 -10.7876 3.66677 
20098 7 11.0388 4.55762 18.3499 4.97712 1.2587 0.678279 
20379 9 14.0792 1.8499 15.1079 5.23625 3.82468 -7.02922 
20099 7 12.4432 4.93315 18.9839 2.98751 3.04045 -3.65277 
20367 9 15.0731 5.55702 18.7382 14.0792 5.5727 20.5033 
20378 9 15.4007 0.0444891 14.8487 2.70993 68.8262 23.4795 
20012 2 15.2359 -1.61828 13.5115 14.2637 57.7971 78.1392 
17469 5 19.9364 -1.30131 13.4326 -16.8028 -13.8326 -13.3945 
20017 5 16.2815 -1.21496 12.5395 9.29706 -1.02605 -6.21488 
20020 5 16.2894 2.4578 12.6312 -8.15059 -6.4823 -10.3104 
17477 1 18.4308 4.50707 12.7514 48.0626 41.8989 55.0059 
17458 1 18.218 0.637135 12.871 55.3287 40.5981 15.3568 
17464 5 19.9587 2.61017 13.0923 3.63073 -12.625 -12.5879 
20014 3 15.3481 -0.927596 14.9324 -19.1578 -11.0164 33.6437 
20013 2 15.2355 2.86552 13.6686 10.589 2.11812 59.8289 
20089 4 15.4847 4.41259 13.8828 -19.3892 1.21029 -23.7713 
17460 2 21.2934 2.30374 13.8302 55.2556 -24.4341 90.945 
17386 2 21.2555 -0.760946 14.0881 57.6746 208.344 41.2408 
20019 3 15.0412 1.88147 14.8885 -4.83145 -3.87539 0.700046 
17466 6 18.0973 0.565139 15.4564 -29.5275 -9.20225 13.4489 
17494 7 18.1593 1.53317 15.7094 4.90013 8.6895 -4.77463 
17493 7 18.6324 0.131773 16.1765 14.869 -4.42869 4.70121 
17471 6 18.6863 3.07335 16.5185 -31.3495 -46.7926 21.9365 
17510 7 19.5726 2.90373 16.1324 19.4264 2.26804 -4.34294 
17509 7 19.0057 3.11187 17.4985 10.1775 3.49047 17.4964 
17463 4 21.2166 0.803669 14.1626 -21.6662 -4.27291 -30.4276 
17508 6 18.017 5.21241 15.1335 -10.9404 -25.9657 7.65291 
17473 7 18.4686 4.63395 15.8875 5.04888 17.0836 4.65085 
14959 7 20.0007 -0.80622 18.0231 -2.41448 -19.6898 0.0185699 
14960 7 20.1182 0.688673 17.94 -0.082122 -2.57185 3.57475 
17391 3 21.5682 -1.57871 15.3928 -23.2477 -27.9283 -8.7419 
17825 9 21.2114 -1.012 16.1234 1.94721 7.21872 -81.2953 
17462 3 21.3204 3.06548 15.1722 -21.461 -29.0315 19.5223 
14918 6 20.1197 -0.0779894 17.3847 -7.26448 -18.2939 -24.7851 
17826 9 21.7123 3.9572 15.1001 7.47457 92.0898 13.9957 
17544 6 16.8663 4.33096 18.3326 -15.1801 -13.8233 16.6768 
17582 7 17.314 3.7841 17.7144 -1.63494 2.22602 -7.06775 
17456 7 16.3403 -0.387646 18.6682 5.43487 3.8684 -2.03167 
17457 7 16.2235 1.19983 18.842 14.8763 16.8487 -0.276319 
17503 6 16.8842 0.391441 18.8512 -16.7335 5.82838 20.0672 
17472 7 17.0648 4.8522 15.0369 17.1382 3.10087 -2.57804 
17583 7 16.066 3.82776 18.55 9.06577 6.0387 3.6166 
17499 3 20.3573 2.62821 18.8993 -26.8279 -16.6904 4.35074 
14905 7 22.0258 4.80109 18.913 14.2233 13.8429 -6.95377 