ITEM: TIMESTEP
541000
ITEM: NUMBER OF ATOMS
25520
ITEM: BOX BOUNDS pp pp pp
-3.8451118546855728e-01 6.0083054775469265e+01
-1.9401090669059344e+00 5.9110394340905721e+01
-1.2635262803998360e+01 1.1191099521000675e+02
ITEM: ATOMS id type xs ys zs
25182 6 0.10244 0.0320504 0.152897
25252 6 0.107107 0.0819843 0.151208
25214 3 0.0427394 0.0472112 0.155657
25287 5 0.0293755 0.0513523 0.174836
25283 5 0.0685505 0.117918 0.170808
25282 5 0.0267807 0.114257 0.175398
25281 4 0.0428746 0.0856694 0.16428
25277 2 0.0446998 0.111259 0.167051
25215 5 0.0712328 0.0554009 0.169062
25209 2 0.0465227 0.0600858 0.166678
25188 1 0.100621 0.0848829 0.169882
25458 9 0.0565074 0.04201 0.15338
25206 1 0.0963845 0.0229774 0.172819
25292 7 0.117778 0.0712452 0.149327
25293 7 0.115287 0.094265 0.147399
25219 7 0.118301 0.0338366 0.153773
25220 7 0.100731 0.0247087 0.14592
2433 1 0.00374264 0.0218044 0.174891
22735 5 0.13142 0.117775 0.173781
22660 5 0.128851 0.0565208 0.170798
22905 9 0.160946 0.0540318 0.150905
22662 3 0.143894 0.1122 0.154139
22658 3 0.147426 0.0487926 0.153397
22656 2 0.149146 0.0445731 0.16599
20112 5 0.228968 0.0472054 0.17342
22663 5 0.171328 0.116123 0.16817
22654 1 0.194863 0.082478 0.170671
22661 5 0.171954 0.0524535 0.169799
22659 4 0.149185 0.0189548 0.168024
22563 1 0.20147 0.0176575 0.173435
22629 6 0.210222 0.0178815 0.154364
22630 6 0.197722 0.0750903 0.150409
22667 7 0.211259 0.0710122 0.146742
22668 7 0.191543 0.0603435 0.150429
20108 5 0.228166 0.112859 0.173126
22670 7 0.220335 0.03029 0.15285
20036 3 0.243458 0.0526225 0.154
22657 2 0.148352 0.123998 0.165345
20031 2 0.247757 0.0555297 0.166204
20107 4 0.24912 0.0803426 0.169046
22669 7 0.220856 0.0051592 0.154398
20106 3 0.243314 0.107428 0.154565
20104 2 0.248837 0.105815 0.166937
20353 9 0.242222 0.093929 0.151462
22906 9 0.157382 0.105824 0.151381
20352 9 0.256359 0.0492992 0.15023
20118 7 0.316322 0.0653789 0.151603
20117 7 0.312482 0.0911991 0.152755
20077 6 0.305823 0.0772779 0.152034
17480 3 0.343212 0.0502235 0.154977
17799 9 0.354538 0.0614673 0.152932
17478 2 0.347284 0.0436913 0.167531
20109 5 0.272041 0.115739 0.169967
17482 5 0.328513 0.0497635 0.174482
20037 5 0.269579 0.045168 0.169386
20011 1 0.298724 0.0787144 0.172656
20028 1 0.295593 0.0176037 0.171804
17481 4 0.350425 0.0186775 0.167244
17560 5 0.327974 0.113026 0.173736
17484 3 0.336363 0.111651 0.154622
20003 6 0.304408 0.0158796 0.152302
20041 7 0.310058 0.0187695 0.145233
17479 2 0.345277 0.120277 0.165314
20042 7 0.317661 0.0210928 0.156049
17485 5 0.368817 0.112677 0.16837
17483 5 0.369496 0.0542964 0.170938
17800 9 0.347709 0.105522 0.150096
17489 7 0.393674 0.104746 0.14875
17490 7 0.392695 0.0816962 0.143912
17451 6 0.392138 0.0886896 0.150513
14856 3 0.444219 0.0434364 0.155818
15246 9 0.447068 0.0282394 0.157191
14929 4 0.443695 0.0827544 0.164579
14926 2 0.449497 0.107455 0.167126
14851 2 0.447082 0.0571634 0.166393
14931 5 0.473524 0.107417 0.171251
14857 5 0.47066 0.0528627 0.170073
17476 1 0.393537 0.0832489 0.170542
14934 5 0.430709 0.0510493 0.174945
14930 5 0.430441 0.115207 0.174108
17384 1 0.400007 0.019458 0.172863
17450 6 0.409459 0.0129019 0.153058
17492 7 0.419634 0.0251286 0.150587
14848 1 0.494868 0.0197926 0.174233
17491 7 0.421044 0.00113142 0.153477
15247 9 0.441452 0.111841 0.151094
14928 3 0.449003 0.120931 0.156459
14862 7 0.48075 0.0195456 0.151529
14826 6 0.49638 0.0230341 0.153535
25280 5 0.0367572 0.126797 0.158739
2104 7 0.0147107 0.2146 0.156166
25290 7 0.113531 0.165241 0.151584
2033 7 0.041602 0.137944 0.132372
25253 6 0.100228 0.155863 0.151989
2032 7 0.050375 0.163086 0.134282
1995 6 0.0366608 0.152292 0.136472
25275 1 0.0919612 0.147654 0.170967
25278 8 0.0280512 0.150054 0.151278
22957 9 0.0902851 0.229301 0.152747
22732 3 0.100379 0.215378 0.153365
25285 4 0.0373364 0.170827 0.160017
25359 5 0.0294944 0.179469 0.178114
25356 5 0.0705465 0.240152 0.172389
25354 4 0.0442176 0.210387 0.166708
25351 2 0.0470674 0.235401 0.168415
25286 5 0.0697965 0.179093 0.170971
25279 2 0.0462589 0.185642 0.168865
25259 1 0.10117 0.212234 0.173188
25355 5 0.0313421 0.242894 0.177138
25394 6 0.0699353 0.1885 0.141253
25291 7 0.0887246 0.165785 0.148692
25432 7 0.0592727 0.184223 0.146697
25433 7 0.0809045 0.197931 0.144837
25353 3 0.0400668 0.247315 0.157926
2103 7 0.00344991 0.19543 0.15213
2065 6 -0.000591525 0.209104 0.155302
1962 7 0.147099 0.200259 0.132966
22741 7 0.221086 0.128674 0.152026
1963 7 0.142775 0.22719 0.132173
22740 7 0.218453 0.152947 0.148666
1927 6 0.134637 0.213133 0.135198
22726 8 0.130261 0.213149 0.150753
22730 5 0.129862 0.178591 0.175486
22700 6 0.209711 0.139897 0.15135
22636 1 0.2001 0.145754 0.171397
22729 4 0.146569 0.148407 0.163997
22733 4 0.141347 0.233539 0.159141
20188 7 0.182231 0.233927 0.155578
20189 7 0.207218 0.232495 0.15556
20148 6 0.194454 0.223254 0.154239
22728 5 0.139445 0.189797 0.157744
22725 2 0.147005 0.173689 0.166113
20178 5 0.230235 0.239367 0.177168
20183 5 0.230627 0.175096 0.175477
22723 1 0.19548 0.208068 0.173406
22731 5 0.169991 0.18012 0.170893
22734 5 0.169995 0.240249 0.173075
22807 5 0.129856 0.24553 0.177444
20110 3 0.240004 0.171992 0.155418
20173 2 0.24758 0.233602 0.168707
20177 4 0.245341 0.209115 0.166108
22727 2 0.147965 0.247932 0.168545
20105 2 0.246354 0.184007 0.166519
20354 9 0.240074 0.182697 0.150136
17555 4 0.344072 0.145156 0.164245
20102 1 0.294818 0.145463 0.170924
17554 3 0.342367 0.178611 0.153326
17801 9 0.339617 0.194197 0.153322
17558 3 0.338792 0.231923 0.156585
17552 2 0.347659 0.170578 0.16499
17556 5 0.328422 0.178832 0.171322
20111 5 0.271334 0.178167 0.169072
20084 1 0.300578 0.20837 0.174055
20179 5 0.27058 0.240613 0.171567
17631 5 0.330351 0.240479 0.176087
17802 9 0.351205 0.229255 0.152216
17553 2 0.346286 0.246682 0.166481
17557 5 0.370634 0.177535 0.168622
17559 5 0.371053 0.241747 0.169429
17563 7 0.415083 0.209331 0.146904
17564 7 0.39067 0.208272 0.143986
17565 7 0.419561 0.147203 0.15215
17566 7 0.400101 0.143736 0.144338
14938 7 0.448978 0.202344 0.13295
14937 7 0.45083 0.189968 0.143514
17525 6 0.404055 0.143458 0.151784
17459 1 0.398633 0.144087 0.172481
17526 6 0.399966 0.209907 0.150438
14899 6 0.442691 0.200848 0.139627
15248 9 0.450973 0.153386 0.15656
15002 3 0.444633 0.239506 0.153419
14932 3 0.447844 0.168771 0.155804
15000 2 0.450343 0.231123 0.165125
15003 4 0.448909 0.206004 0.166124
14927 2 0.448826 0.181212 0.166772
15005 5 0.473991 0.239 0.168346
14933 5 0.471783 0.174788 0.171476
15004 5 0.430612 0.238166 0.172811
17550 1 0.39549 0.207262 0.171077
15008 5 0.429894 0.174953 0.174237
15249 9 0.447318 0.227324 0.148567
14924 1 0.497695 0.143819 0.173341
14940 7 0.479636 0.140993 0.149786
14939 7 0.492371 0.161085 0.149454
14898 6 0.493827 0.146894 0.152812
25235 6 0.0806345 -0.000273209 0.230534
22648 6 0.105081 0.0555508 0.248226
22687 7 0.113958 0.0642877 0.242548
25471 9 0.0719115 0.0131912 0.246549
25198 5 0.0973081 0.0817528 0.191161
25195 5 0.0934659 0.0174578 0.192055
25268 5 0.0560794 0.0798666 0.193271
25258 1 0.0238729 0.11657 0.194516
25207 1 0.0288743 0.0517829 0.195084
25191 2 0.0771497 0.0873763 0.198172
25263 4 0.0738491 0.11262 0.200172
25197 4 0.0736336 0.0728985 0.208171
25192 5 0.0752243 0.0293875 0.210004
25196 3 0.0331816 0.0508384 0.21308
25190 8 0.0633626 0.0519815 0.217233
25510 9 0.0212541 0.0402352 0.215508
25517 7 0.0666876 0.0686247 0.23667
25240 6 0.0698427 0.0543971 0.232426
22685 7 0.0818449 0.0978187 0.218263
25506 7 0.0666119 0.0412783 0.238066
22649 6 0.0879248 0.108416 0.223738
25194 5 0.0526028 0.0124443 0.195602
25189 2 0.0756153 0.0128419 0.20068
22684 7 0.0745857 0.110497 0.227212
25308 6 0.0208959 0.111082 0.214803
25472 9 0.0546861 0.0984133 0.244576
22686 7 0.0939898 0.0471274 0.244397
22650 7 0.104873 0.0311918 0.211577
25272 7 0.0261693 0.108005 0.222064
25271 7 0.0110775 0.0976296 0.213355
22683 6 0.119394 0.0376485 0.21236
25202 7 0.0804758 0.0158096 0.229472
25309 7 0.0292347 0.118054 0.23909
25270 6 0.0444676 0.120876 0.237829
25236 7 0.00224765 0.0245394 0.245297
22958 9 0.119761 0.118157 0.21463
20062 7 0.116879 0.0876861 0.229134
22635 1 0.12228 0.0521161 0.192732
22760 7 0.104665 0.109027 0.238327
25231 3 0.059556 0.0851737 0.24901
22717 6 0.10135 0.116171 0.245359
22651 7 0.119543 0.0440324 0.219684
20023 6 0.127987 0.0789597 0.23183
25201 6 0.00110718 0.0404819 0.245624
25205 7 0.0122882 0.00974786 0.217951
22613 7 0.117369 0.014314 0.244952
25310 7 0.0486208 0.128472 0.244299
22759 7 0.0864454 0.111674 0.246582
25343 6 0.00558934 0.242507 0.240924
22655 1 0.127908 0.113641 0.192203
20134 7 0.218969 0.0437901 0.241448
22918 9 0.153766 0.0189139 0.247982
20061 7 0.133823 0.0886481 0.237193
22643 5 0.190823 0.0851751 0.189424
22572 5 0.19243 0.0159325 0.194427
20083 1 0.221951 0.114782 0.193191
20029 1 0.225896 0.0522904 0.194698
22642 5 0.149756 0.0746694 0.192897
20063 7 0.176277 0.046932 0.221393
22637 2 0.173148 0.0764493 0.197211
22641 4 0.178499 0.0517412 0.201061
22565 2 0.17429 0.0265946 0.20092
22640 5 0.17055 0.0923039 0.206549
20060 6 0.224513 0.0505215 0.215075
20022 6 0.184945 0.0582998 0.225362
20064 7 0.183416 0.0695453 0.220153
22647 5 0.152896 0.0198344 0.195687
20096 6 0.210245 0.055303 0.245312
22571 3 0.174751 0.0208714 0.212999
22638 8 0.162703 0.113276 0.215663
22644 3 0.132624 0.114211 0.210443
17471 6 0.243507 0.0193954 0.22791
20135 7 0.200954 0.0591361 0.239292
22965 7 0.175871 0.097627 0.233582
22577 7 0.137835 0.0384345 0.231841
20025 7 0.209819 0.0545055 0.218587
22688 6 0.175679 0.114227 0.229727
22612 6 0.141138 0.0233975 0.233499
22576 7 0.153414 0.0212502 0.229437
20024 7 0.228278 0.0368633 0.219761
22931 9 0.185662 0.0102518 0.214595
22919 9 0.164059 0.0762895 0.24417
20100 7 0.23296 0.107713 0.23841
20097 6 0.202775 0.115679 0.248097
20132 7 0.187759 0.106849 0.247804
22675 3 0.162898 0.0877223 0.248953
20101 7 0.238089 0.112303 0.226694
20130 6 0.244904 0.111784 0.234108
17510 7 0.245234 0.0250933 0.234742
22614 7 0.101033 -0.00317074 0.241867
17813 9 0.365465 0.104052 0.248086
17509 7 0.256594 0.0244751 0.224274
20051 3 0.260189 0.0291298 0.248296
20095 5 0.250877 0.0820491 0.196654
20016 5 0.249631 0.0241884 0.197523
20020 5 0.291768 0.0786327 0.191923
20366 9 0.260213 0.0889826 0.245961
20017 5 0.290852 0.0211506 0.191556
17477 1 0.325887 0.113163 0.193645
17458 1 0.322357 0.0497273 0.194689
17464 5 0.350605 0.0845657 0.196398
20013 2 0.274682 0.0872867 0.200303
20379 9 0.282243 0.0866892 0.21689
20089 4 0.277802 0.112476 0.201281
20019 3 0.280273 0.0760582 0.210948
20378 9 0.275349 0.0450497 0.209465
17466 6 0.32167 0.0488896 0.214895
17493 7 0.306646 0.0469714 0.215786
17494 7 0.326571 0.0615405 0.219363
14960 7 0.355018 0.0851019 0.224957
14918 6 0.339875 0.0840136 0.226778
14959 7 0.339626 0.087303 0.234284
17469 5 0.352831 0.0177842 0.198171
20014 3 0.282294 0.030961 0.209391
20012 2 0.273044 0.0165346 0.200136
17503 6 0.304833 0.0481716 0.245536
17499 3 0.361637 0.0891791 0.247453
17548 7 0.271928 0.101758 0.23003
17578 6 0.284795 0.0934178 0.232338
17456 7 0.302801 0.0534404 0.238353
17549 7 0.282785 0.0934878 0.240065
17457 7 0.297206 0.0343565 0.245018
17473 7 0.328578 0.105043 0.216488
14846 7 0.374314 0.0454916 0.226003
17583 7 0.305593 0.115791 0.239707
17544 6 0.307981 0.122804 0.246097
17460 2 0.373565 0.0783855 0.199677
17386 2 0.375735 0.0279834 0.199998
17475 7 0.307441 0.00756151 0.215554
17825 9 0.390305 0.0330541 0.214953
17508 6 0.326992 0.120159 0.213878
17463 4 0.374579 0.0531473 0.199361
14847 7 0.370852 0.0669955 0.232311
14878 6 0.381795 0.058897 0.227568
17391 3 0.381837 0.0212854 0.212
17462 3 0.377492 0.0861061 0.211062
17826 9 0.379747 0.0735309 0.216014
15272 9 0.482737 0.00788 0.218018
14840 5 0.492265 0.0796538 0.194074
17465 5 0.391306 0.0870451 0.192436
14906 1 0.421329 0.113831 0.194265
17392 5 0.390834 0.0188826 0.191513
14849 1 0.424965 0.0535163 0.194133
14917 5 0.451508 0.080531 0.196021
14837 5 0.44984 0.0211402 0.198166
14911 4 0.475138 0.112892 0.201909
14834 2 0.473613 0.0877832 0.201019
14839 3 0.474535 0.0767145 0.212209
14955 6 0.420766 0.0568521 0.213936
15273 9 0.47789 0.0870692 0.217676
14922 7 0.406422 0.0537288 0.217841
14923 7 0.431187 0.0511584 0.219316
15308 7 0.458192 0.0590885 0.223972
14884 6 0.455594 0.046389 0.229573
15297 7 0.465937 0.0333466 0.227353
15303 9 0.402245 0.04818 0.240578
14868 8 0.444386 0.0494868 0.243753
14835 3 0.480838 0.02197 0.214239
14874 3 0.413822 0.050982 0.24676
14833 2 0.473893 0.0169302 0.20229
14914 6 0.412885 0.11863 0.214734
14838 5 0.491965 0.0238101 0.194192
14951 6 0.396342 0.114349 0.242685
14941 7 0.402009 0.107103 0.215918
12366 6 0.482084 0.0970533 0.2306
12408 7 0.474162 0.0858179 0.234774
12407 7 0.473544 0.109266 0.232409
14904 7 0.389437 0.10158 0.23974
22904 9 0.142918 0.00120169 0.151424
12399 6 0.500877 0.184238 0.243946
14942 7 0.403003 0.131254 0.216667
22795 7 0.104375 0.238699 0.214653
25348 7 0.00108566 0.182525 0.216444
25484 9 0.0872969 0.130891 0.215312
22757 7 0.0897292 0.192924 0.244166
25267 5 0.0934253 0.209423 0.192705
25265 5 0.0920718 0.145545 0.191178
25347 7 0.0230152 0.180433 0.223578
25512 9 0.00460562 0.181222 0.239174
25303 3 0.0173154 0.17665 0.244416
25260 2 0.0762749 0.138951 0.200019
25264 5 0.0537526 0.148931 0.19844
25332 1 0.0239674 0.241165 0.19715
25276 1 0.0273661 0.177544 0.196704
25342 5 0.051804 0.214236 0.198716
25337 4 0.0789239 0.242783 0.200702
25261 2 0.0763926 0.21793 0.200817
25266 3 0.0830681 0.210269 0.212335
25262 3 0.0876448 0.14446 0.210656
25485 9 0.0956965 0.200454 0.211713
22720 7 0.102014 0.169922 0.215324
25377 6 0.0174655 0.18285 0.215791
25507 7 0.068611 0.186863 0.22372
25518 7 0.0674354 0.158914 0.22595
25314 6 0.0639659 0.175291 0.228912
25297 8 0.0474241 0.177002 0.242369
22830 7 0.06865 0.235922 0.219191
22791 6 0.0609596 0.241875 0.225442
22829 7 0.0544088 0.228319 0.228546
22751 3 0.113653 0.246601 0.246106
22756 6 0.116142 0.178226 0.213378
22758 7 0.113955 0.187821 0.239296
22706 1 0.122014 0.176173 0.194086
22718 6 0.104764 0.187081 0.246206
22825 6 0.119863 0.242957 0.215366
25378 6 0.0177773 0.241514 0.217404
9739 6 0.463931 0.240357 0.227587
20133 7 0.197643 0.129331 0.245229
22719 7 0.126424 0.175855 0.219873
22679 3 0.16372 0.143288 0.248379
20207 7 0.209649 0.250994 0.237487
20131 6 0.219425 0.12572 0.213451
22724 1 0.128326 0.242893 0.19573
22954 7 0.167103 0.123473 0.236059
20208 7 0.189072 0.243631 0.242341
20099 7 0.204555 0.131441 0.215858
20098 7 0.230408 0.137721 0.215712
20167 7 0.203352 0.22868 0.216894
22646 5 0.19509 0.1464 0.192545
22713 5 0.188816 0.209521 0.192871
20103 1 0.226914 0.175093 0.195276
22716 5 0.153461 0.144242 0.193559
20154 1 0.221204 0.239926 0.196617
22722 7 0.146667 0.179773 0.240322
22645 4 0.174113 0.138473 0.20958
22712 5 0.149098 0.211113 0.199074
22639 2 0.174237 0.151418 0.199262
22708 2 0.172555 0.201807 0.201435
22711 4 0.171792 0.176956 0.200864
22710 3 0.182776 0.207525 0.212703
22932 9 0.181667 0.193435 0.217039
20204 6 0.213683 0.240781 0.217502
20092 3 0.232629 0.172421 0.214815
22721 7 0.146563 0.199701 0.232676
20406 9 0.219209 0.181052 0.217748
22745 8 0.14312 0.241811 0.24241
20166 6 0.180522 0.170048 0.225475
20206 7 0.167861 0.173613 0.230545
22755 6 0.140742 0.185585 0.233218
20205 7 0.177562 0.156114 0.221713
22762 6 0.155433 0.238016 0.228486
20169 7 0.205055 0.171774 0.238465
20203 6 0.212217 0.168758 0.245347
22955 7 0.161871 0.223014 0.225574
20165 6 0.204406 0.247757 0.244678
20170 7 0.229374 0.16899 0.242886
22575 6 0.108765 0.00326415 0.248523
22966 7 0.158422 0.251507 0.223381
20090 5 0.251998 0.137559 0.194308
17571 3 0.358468 0.218723 0.247677
17815 9 0.361894 0.234178 0.249163
20164 5 0.249983 0.20656 0.195275
20123 3 0.257958 0.14681 0.248045
20367 9 0.252782 0.134387 0.243461
17472 7 0.342949 0.125544 0.214735
17582 7 0.320469 0.132342 0.244021
17581 7 0.294308 0.248964 0.238607
17617 7 0.275481 0.220385 0.221213
17651 6 0.277888 0.230638 0.226605
17618 7 0.279159 0.244562 0.222779
20368 9 0.268684 0.218043 0.24131
20091 5 0.292079 0.144537 0.190583
20094 5 0.292747 0.20938 0.193579
17531 1 0.321765 0.175421 0.192902
17551 1 0.32715 0.23808 0.194577
17538 5 0.352608 0.199777 0.192838
17543 5 0.351012 0.146249 0.195964
20085 2 0.274568 0.137367 0.198718
20086 8 0.262452 0.175638 0.21669
20087 2 0.272042 0.214535 0.199757
20159 4 0.272728 0.239053 0.202602
20088 5 0.270707 0.153784 0.208206
20093 4 0.270375 0.200063 0.209488
17547 7 0.337925 0.175517 0.212787
17540 3 0.33409 0.232916 0.21345
17579 6 0.323745 0.172665 0.214626
17546 7 0.322967 0.15732 0.213785
20136 6 0.277727 0.16875 0.22991
20413 7 0.277301 0.183569 0.235371
20402 7 0.273459 0.156397 0.235085
17534 8 0.363856 0.234852 0.216139
17814 9 0.361523 0.150759 0.240368
20127 3 0.26678 0.207613 0.247497
17536 5 0.373122 0.215053 0.206823
17854 9 0.322318 0.22969 0.219252
17545 6 0.306543 0.246897 0.243401
17504 3 0.360842 0.141122 0.246813
14996 7 0.362497 0.178814 0.238417
15026 6 0.364199 0.170732 0.231508
17827 9 0.370964 0.154083 0.217749
14997 7 0.350981 0.174322 0.22798
17580 7 0.319999 0.249599 0.239666
14985 4 0.48274 0.240349 0.201384
14919 6 0.411204 0.176754 0.241619
14952 3 0.461505 0.206951 0.247771
9776 7 0.47177 0.247484 0.221796
12352 7 0.491656 0.17148 0.241689
14921 7 0.4055 0.17461 0.214302
14947 3 0.469308 0.151587 0.24747
14909 2 0.478439 0.214618 0.201198
14916 5 0.497315 0.208451 0.193353
14912 5 0.451555 0.145176 0.196706
17533 2 0.375917 0.199321 0.197987
14979 1 0.423821 0.237298 0.194379
17461 2 0.37377 0.150112 0.201117
17850 7 0.389211 0.245506 0.232778
15027 6 0.422145 0.227832 0.21367
17539 5 0.393343 0.205987 0.189709
14913 5 0.491019 0.144958 0.19236
14925 1 0.427772 0.177423 0.194182
15261 9 0.45892 0.147866 0.241654
14995 7 0.426945 0.213337 0.217475
17537 4 0.377871 0.175789 0.202309
14915 3 0.484297 0.205228 0.212393
9777 7 0.449528 0.238385 0.224487
17468 5 0.391974 0.144208 0.193043
17861 7 0.37629 0.222797 0.235596
12353 7 0.491048 0.197051 0.244289
14910 3 0.477445 0.149243 0.212078
14991 5 0.45485 0.209589 0.196858
14957 7 0.426299 0.177387 0.238439
14956 6 0.420379 0.179503 0.215235
17467 3 0.373893 0.141293 0.212428
14920 7 0.426835 0.169542 0.220415
14958 7 0.402428 0.172994 0.235694
15275 9 0.478944 0.216023 0.21795
12329 7 0.441331 0.132112 0.226569
14994 7 0.407581 0.223143 0.211345
17584 6 0.383334 0.231471 0.22876
12328 7 0.458034 0.148548 0.22398
15274 9 0.489396 0.159786 0.211137
15262 9 0.460084 0.217783 0.242226
12291 6 0.444774 0.147198 0.228577
14908 2 0.473472 0.13806 0.200555
14905 7 0.3866 0.127038 0.241966
25381 7 0.0075664 0.251054 0.234417
22796 7 0.127821 0.231231 0.218317
25345 7 0.0288133 0.241068 0.223235
12330 7 0.452897 -0.00695629 0.228388
20365 9 0.263788 0.0440334 0.248898
14875 4 0.454211 0.0734876 0.249918
25178 3 0.0212275 0.0578811 0.305177
25245 3 0.02218 0.114612 0.303823
25251 5 0.0109449 0.052658 0.286205
25246 4 0.0296449 0.0865256 0.290325
25243 2 0.0312448 0.112041 0.291986
25224 1 0.084396 0.0875834 0.288873
25179 5 0.0526528 0.0525682 0.292178
25173 2 0.0296126 0.0618568 0.293125
25170 1 0.0785865 0.0258651 0.290951
25232 5 0.0768823 0.0836811 0.268051
25230 5 0.0777689 0.0273251 0.269411
22671 1 0.106748 0.0557935 0.268223
25171 1 0.00924413 0.0532233 0.264597
25229 5 0.0350995 0.024507 0.265168
25294 1 0.00456583 0.115423 0.264658
25306 5 0.0346221 0.0849839 0.263881
25226 2 0.0581014 0.0911325 0.260717
25225 2 0.0591257 0.0175906 0.262288
25496 9 0.0172021 0.0429924 0.306365
25288 6 0.0828907 0.081036 0.308502
22619 1 0.110747 0.119192 0.263107
25300 4 0.0589904 0.117612 0.261215
25248 5 0.054983 0.119072 0.290451
22699 5 0.115181 0.119782 0.281984
22624 5 0.114877 0.0609892 0.288964
25247 5 0.0122083 0.119747 0.284662
25218 6 0.092129 0.0219102 0.310903
25497 9 0.0143873 0.101128 0.305644
25183 7 0.101737 0.0354407 0.309766
25257 7 0.0989203 0.0793828 0.31048
22944 9 0.115984 0.118421 0.305764
22626 3 0.125083 0.108513 0.301098
25227 3 0.0654756 0.024411 0.250703
22943 9 0.127483 0.0787002 0.306247
22622 3 0.126495 0.0628923 0.30729
22623 4 0.12777 0.0256065 0.297226
22681 5 0.13588 0.0235099 0.266811
22620 2 0.13173 0.0508828 0.296526
19999 4 0.222403 0.044563 0.301673
19993 2 0.231217 0.0590046 0.292794
20068 2 0.229292 0.108633 0.297357
20071 4 0.228536 0.0842653 0.295218
22625 5 0.155344 0.0567501 0.292999
22627 5 0.156118 0.112967 0.288137
22618 1 0.17984 0.0850504 0.288653
20076 5 0.214761 0.0582674 0.283251
22600 1 0.185718 0.0247647 0.291016
22609 5 0.177625 0.0259122 0.272877
22678 5 0.177496 0.089229 0.267871
19990 1 0.209923 0.0551444 0.266525
22677 5 0.135575 0.0892009 0.264169
20129 5 0.236952 0.0845083 0.265132
20053 5 0.233196 0.0225555 0.263139
22602 2 0.15933 0.0305464 0.264403
22673 2 0.158435 0.0799042 0.260582
22676 4 0.158814 0.0546878 0.262141
19998 3 0.186922 0.0228972 0.310663
20119 1 0.208848 0.116635 0.268106
20072 5 0.213579 0.117965 0.288777
19992 8 0.219006 0.0226601 0.311312
22608 3 0.164506 0.0157793 0.254089
20070 3 0.221189 0.114293 0.308815
22621 2 0.132135 0.121541 0.291077
20000 5 0.254958 0.0507179 0.290443
17448 5 0.352621 0.119438 0.289267
17440 8 0.317189 0.0837092 0.310137
17446 3 0.286075 0.0813606 0.309445
17442 5 0.32215 0.0632602 0.300219
17447 4 0.321119 0.10808 0.302117
17443 4 0.332712 0.0252164 0.294245
17439 2 0.330726 0.0497457 0.290937
20048 1 0.28341 0.0859017 0.290366
19989 1 0.277424 0.023708 0.288178
17445 5 0.352763 0.0587425 0.287856
17444 5 0.311345 0.0528932 0.283081
20057 5 0.276763 0.0908789 0.272017
17495 1 0.304128 0.0544481 0.265797
17506 5 0.335781 0.024369 0.265026
20054 5 0.274138 0.0252935 0.267421
17438 1 0.313727 0.11778 0.266505
17501 5 0.334836 0.0848255 0.262697
17421 2 0.359543 0.0286229 0.261144
20050 2 0.260155 0.0919243 0.262856
20049 2 0.255967 0.017849 0.259371
17497 2 0.358235 0.0784959 0.25885
20040 6 0.280136 0.0279533 0.308704
17500 4 0.362252 0.0527565 0.257033
20073 5 0.252869 0.117536 0.296026
20124 4 0.258444 0.116663 0.261366
20004 7 0.281592 0.0438499 0.309739
17524 5 0.312548 0.119052 0.284186
17427 4 0.357553 0.0124161 0.252055
20056 3 0.267621 0.0808297 0.25158
17502 5 0.376448 0.0842144 0.266709
17838 9 0.332315 0.00255573 0.31033
16140 7 0.420548 -0.00691191 0.495686
17428 5 0.376264 0.0229906 0.269633
17437 1 0.377532 0.087644 0.286391
14822 3 0.420478 0.0560653 0.304987
14891 4 0.431255 0.0886266 0.294401
14817 2 0.430752 0.0636529 0.293801
14887 2 0.428629 0.112753 0.292107
14823 5 0.455105 0.0550836 0.292953
17418 1 0.384523 0.0238514 0.287475
14893 5 0.451513 0.118987 0.287642
14897 5 0.413678 0.0553173 0.285104
14892 5 0.410701 0.115056 0.28299
14866 1 0.482695 0.0867652 0.287176
14814 1 0.476922 0.0217416 0.288856
14873 5 0.472394 0.0214253 0.270108
14876 5 0.474507 0.0829435 0.266574
14815 1 0.409806 0.054276 0.264973
14943 1 0.403866 0.118143 0.264112
14954 5 0.434666 0.0873884 0.263949
17412 6 0.388019 0.0268368 0.308001
14869 2 0.457246 0.0911559 0.258539
14872 5 0.432086 0.0121118 0.267437
14867 2 0.455186 0.0131718 0.262068
14948 4 0.458383 0.116404 0.256002
14860 6 0.487651 0.0859979 0.308153
17379 7 0.400127 0.0371349 0.310391
14870 5 0.452557 0.0300098 0.253408
17380 7 0.39528 0.0129884 0.3097
14670 7 0.491181 0.00431334 0.402652
14902 7 0.430553 0.0974201 0.312544
15286 9 0.423788 0.0680493 0.310105
14828 7 0.502485 0.0929577 0.306406
16930 1 0.415047 0.238447 0.465581
11841 7 0.49783 0.224141 0.418044
25296 2 0.0592811 0.142497 0.261475
25241 1 0.0807375 0.148152 0.289477
25249 3 0.0231064 0.178164 0.302573
25360 6 0.0775757 0.201541 0.308032
25320 4 0.0291804 0.210036 0.291931
25317 2 0.0307405 0.235252 0.291053
25295 1 0.0847953 0.211382 0.28777
25250 5 0.0565151 0.176498 0.291081
25244 2 0.0325662 0.185192 0.291528
25325 5 0.0146443 0.177748 0.283315
25302 5 0.0780464 0.152123 0.268955
25305 5 0.0750972 0.209614 0.266726
22742 1 0.105213 0.180238 0.266674
25301 5 0.0364978 0.148662 0.264889
25242 1 0.0106596 0.178803 0.263528
25376 5 0.0335451 0.21793 0.263261
25298 2 0.0571619 0.217822 0.25913
25289 6 0.0904704 0.145378 0.309883
25366 1 0.00687272 0.243324 0.261687
25498 9 0.0201128 0.190062 0.307123
25371 4 0.0609742 0.242402 0.256019
22690 1 0.109508 0.243145 0.265962
22695 5 0.11323 0.181255 0.28796
22773 5 0.114157 0.245707 0.282696
25322 5 0.0544319 0.242256 0.288579
25321 5 0.0135902 0.242674 0.282823
25299 5 0.0571218 0.155705 0.251215
25499 9 0.0144955 0.237764 0.305774
22697 3 0.119863 0.240044 0.301259
25319 3 0.0252169 0.247187 0.302074
25331 7 0.0660911 0.191424 0.305815
25255 7 0.102321 0.155442 0.311134
3946 7 0.000799534 0.156764 0.306438
22693 3 0.130059 0.174742 0.30721
22945 9 0.138291 0.162092 0.31073
22694 4 0.133255 0.146815 0.292973
22691 2 0.131952 0.17157 0.294791
22748 4 0.161662 0.181054 0.256323
22674 2 0.159772 0.155178 0.259002
22754 5 0.136021 0.150848 0.262037
20202 5 0.234534 0.210343 0.261446
22672 1 0.184072 0.148281 0.287514
20142 4 0.230801 0.211 0.291782
20147 5 0.212569 0.176042 0.286442
22696 5 0.154101 0.180506 0.290703
20074 3 0.23095 0.182113 0.304852
20069 2 0.231641 0.185992 0.292388
22689 1 0.179847 0.20914 0.288013
20392 9 0.235647 0.19464 0.308655
20139 2 0.230921 0.235895 0.292659
20067 1 0.213274 0.180077 0.264212
22680 5 0.178245 0.150027 0.267983
22750 5 0.176581 0.214707 0.266745
22749 5 0.134669 0.207757 0.265802
20125 5 0.238037 0.150515 0.265248
22744 2 0.15696 0.204534 0.260392
22737 6 0.189136 0.208138 0.308332
22736 6 0.188035 0.14981 0.308023
22698 5 0.154916 0.237597 0.287978
20190 1 0.203861 0.243094 0.26489
20143 5 0.212954 0.242994 0.284882
20393 9 0.228553 0.234681 0.309732
20141 3 0.224806 0.245312 0.304034
22704 7 0.199487 0.138647 0.309911
22705 7 0.196116 0.164286 0.3083
22703 7 0.201811 0.199755 0.309245
22692 2 0.131649 0.248924 0.291367
22747 5 0.15021 0.219385 0.251106
17441 2 0.329269 0.122898 0.29334
17572 4 0.361527 0.179988 0.25494
20126 5 0.279763 0.14926 0.266258
20075 5 0.253295 0.1758 0.288041
20066 1 0.276226 0.14571 0.289037
17516 2 0.327854 0.172599 0.294851
17518 3 0.32492 0.18687 0.30562
20114 6 0.281324 0.212159 0.306822
17519 4 0.325713 0.147606 0.296335
17521 5 0.351091 0.179482 0.290717
20120 1 0.280871 0.21069 0.285564
17520 5 0.309268 0.180501 0.287606
17595 5 0.313633 0.241374 0.281471
17567 1 0.3041 0.179315 0.266672
20128 5 0.27514 0.21221 0.266393
17577 5 0.335117 0.149454 0.261785
17573 5 0.333931 0.20616 0.262034
17498 2 0.358363 0.155214 0.25706
20121 2 0.259653 0.141245 0.25984
17569 2 0.357755 0.204784 0.258061
20122 2 0.257043 0.217923 0.257971
20196 4 0.259072 0.243029 0.25635
20113 6 0.26802 0.151665 0.309427
17523 5 0.352829 0.240289 0.286765
17515 1 0.310515 0.241382 0.263231
20144 5 0.253142 0.244546 0.290009
17522 3 0.323729 0.235992 0.301902
17530 7 0.374731 0.229836 0.309018
20081 7 0.259904 0.139092 0.307173
17839 9 0.309745 0.191342 0.305887
17561 6 0.373665 0.214341 0.307006
17529 7 0.357382 0.211517 0.307077
17840 9 0.327792 0.220823 0.301912
17517 2 0.32995 0.246614 0.290769
20082 7 0.255366 0.162847 0.309967
20079 7 0.289359 0.224831 0.308571
14890 5 0.419914 0.126636 0.300981
17574 5 0.375123 0.213586 0.265441
17505 5 0.375428 0.145778 0.265216
17514 1 0.378237 0.207948 0.286569
15020 4 0.459023 0.241581 0.258968
14945 2 0.459035 0.141514 0.258162
14886 1 0.41005 0.179883 0.262262
14894 3 0.382502 0.148914 0.30626
14972 5 0.412568 0.179491 0.279051
14896 5 0.451764 0.175519 0.285796
14888 8 0.413212 0.150943 0.307977
12342 3 0.483592 0.205961 0.306815
14895 4 0.417273 0.170334 0.297364
14964 2 0.429141 0.233563 0.293013
14967 4 0.429177 0.208179 0.291766
14889 2 0.42783 0.183163 0.288618
17496 1 0.382331 0.148768 0.286613
14944 1 0.483282 0.208689 0.287135
14885 1 0.478167 0.147795 0.286292
14953 5 0.47527 0.209462 0.267346
14936 6 0.475056 0.148409 0.306897
14950 5 0.475382 0.148556 0.266906
15025 5 0.433975 0.209834 0.262896
14949 5 0.435248 0.148014 0.260708
14946 2 0.456717 0.216773 0.259136
15015 1 0.403992 0.242413 0.264663
14969 5 0.453359 0.239833 0.290166
14968 5 0.411025 0.241839 0.28526
14966 3 0.424308 0.239967 0.304511
14901 7 0.488029 0.146865 0.311321
25256 7 0.0735207 0.0739583 0.313763
24544 6 0.0902886 0.0218614 0.335177
24654 7 0.109213 0.0916722 0.333324
24655 7 0.0885323 0.0782948 0.328842
24614 6 0.0970299 0.0829078 0.335344
24820 9 0.0390822 0.0553666 0.334633
24550 1 0.0885407 0.0869609 0.355989
24571 2 0.036069 0.0603186 0.351624
24576 3 0.030455 0.0495524 0.3407
24577 5 0.0598369 0.0556591 0.353259
24639 2 0.0334267 0.110422 0.351254
24643 4 0.0346028 0.0858208 0.349383
24644 5 0.0162491 0.115745 0.359841
24645 5 0.0571942 0.116799 0.354212
24649 5 0.0181425 0.0544754 0.359671
24568 1 0.0830184 0.0219076 0.355597
22022 5 0.116917 0.0583276 0.357956
22097 5 0.118064 0.11852 0.356406
24582 7 0.08562 0.0277368 0.328238
24581 7 0.102592 0.0328951 0.336879
25186 7 0.0414849 0.0593739 0.318109
25217 6 0.0545676 0.058782 0.322983
25185 7 0.0608736 0.0459947 0.32144
24642 5 0.0263674 0.125924 0.342247
1825 7 0.00107112 0.0353142 0.336104
22267 9 0.121783 0.0625093 0.338172
25184 7 0.104039 0.0108763 0.311729
24560 5 0.0835432 0.0937572 0.375749
24819 9 0.016664 0.00101649 0.341584
22266 9 0.115349 0.000156972 0.338953
20391 9 0.234512 0.116725 0.313517
20409 9 0.177525 0.0302392 0.316236
22268 9 0.13272 0.1263 0.331087
22633 7 0.152239 0.0685944 0.316278
20415 7 0.240456 0.0159822 0.328677
22024 3 0.128374 0.115749 0.33631
22020 3 0.132887 0.0507604 0.340234
22665 6 0.163047 0.0626093 0.321293
22634 7 0.152899 0.0600576 0.327613
22021 4 0.13499 0.0232164 0.35305
20065 6 0.238008 0.0294308 0.323168
22631 7 0.176919 0.0842973 0.328764
22632 7 0.199256 0.0973223 0.331908
19714 9 0.222994 0.0771795 0.337036
22666 6 0.18592 0.0912052 0.334958
19468 3 0.232693 0.115867 0.337349
19398 3 0.229728 0.0637703 0.339372
19466 2 0.236274 0.114802 0.35001
19469 4 0.235606 0.0905235 0.353889
19393 2 0.235093 0.0655461 0.352028
19474 5 0.216496 0.0566789 0.359038
22016 1 0.181574 0.0886173 0.35525
22018 2 0.136504 0.0481698 0.352432