ITEM: TIMESTEP
314000
ITEM: NUMBER OF ATOMS
25520
ITEM: BOX BOUNDS pp pp pp
-3.8218747355559679e-01 6.0080731063556158e+01
-1.9377629532524279e+00 5.9108048227253725e+01
-1.2630476607979515e+01 1.1190620901398549e+02
ITEM: ATOMS id type xs ys zs
25182 6 0.0962985 0.0247206 0.148757
25252 6 0.108708 0.084566 0.150757
25214 3 0.0406669 0.0462481 0.157089
25287 5 0.0369582 0.0590057 0.176357
25283 5 0.0763084 0.11828 0.170789
25282 5 0.0352606 0.118996 0.176179
25281 4 0.0533673 0.0868482 0.164078
25277 2 0.0523718 0.111355 0.16807
25215 5 0.0746691 0.0541185 0.169846
25209 2 0.0513588 0.0612772 0.166204
25188 1 0.107137 0.0867933 0.17151
25458 9 0.0391129 0.0542937 0.150658
25206 1 0.101853 0.0244432 0.17021
2433 1 0.00887104 0.0239912 0.172042
25219 7 0.101283 0.018506 0.14246
1949 1 0.00161345 0.0881298 0.174576
25293 7 0.115587 0.0948654 0.145775
25220 7 0.0924842 0.0393979 0.146663
25292 7 0.121423 0.0727943 0.150477
22735 5 0.135637 0.116316 0.171076
22660 5 0.137548 0.055977 0.171937
22905 9 0.159323 0.065046 0.149446
22662 3 0.143962 0.115179 0.151352
22658 3 0.147062 0.056317 0.152115
22656 2 0.153541 0.0473487 0.163623
20112 5 0.234184 0.0525845 0.170625
22663 5 0.175476 0.118296 0.165341
22654 1 0.199558 0.0869799 0.167114
22661 5 0.175067 0.0574224 0.167283
22669 7 0.225659 0.0310568 0.14861
22659 4 0.156436 0.0224054 0.164863
22563 1 0.205697 0.021726 0.170799
22629 6 0.214788 0.0198326 0.150303
22630 6 0.200417 0.094874 0.147334
22667 7 0.191191 0.107292 0.147652
22668 7 0.213751 0.100408 0.144281
22670 7 0.225558 0.00684773 0.15091
20108 5 0.23574 0.120004 0.168268
20106 3 0.249279 0.114618 0.149614
20036 3 0.246849 0.0543863 0.150695
20352 9 0.245392 0.0687198 0.147603
20042 7 0.295574 0.0129976 0.146148
20107 4 0.253571 0.0842378 0.164383
20104 2 0.254464 0.109395 0.161824
20031 2 0.253439 0.0591086 0.163065
20118 7 0.326798 0.0976642 0.148738
20117 7 0.330803 0.0734753 0.150238
20077 6 0.318788 0.084686 0.151215
17480 3 0.34718 0.0483956 0.153388
17799 9 0.340475 0.0342525 0.151068
17478 2 0.353956 0.0458154 0.165415
20109 5 0.277796 0.118914 0.165612
17482 5 0.334671 0.0543194 0.172253
20037 5 0.276596 0.0520787 0.167356
20011 1 0.304519 0.0845149 0.1707
20028 1 0.299624 0.0224358 0.172158
17481 4 0.355149 0.02106 0.167103
20003 6 0.305131 0.0159381 0.151927
17560 5 0.333324 0.117602 0.172775
17414 7 0.37647 0.0377986 0.141014
17484 3 0.346472 0.119056 0.153965
20353 9 0.262811 0.117065 0.146193
17485 5 0.375886 0.11705 0.168678
20041 7 0.31672 0.00414576 0.152019
17479 2 0.35218 0.124967 0.165769
17413 7 0.369522 0.0145503 0.136711
17378 6 0.381319 0.0253778 0.136531
17483 5 0.375639 0.0557212 0.16908
17490 7 0.416174 0.111454 0.150326
17489 7 0.423723 0.0891688 0.150647
17451 6 0.409755 0.0968805 0.151269
14856 3 0.441851 0.0443332 0.159146
15246 9 0.449374 0.0308924 0.159316
14929 4 0.450747 0.0838837 0.164011
14926 2 0.453905 0.108311 0.16676
14851 2 0.450822 0.0590044 0.168677
14931 5 0.477212 0.111566 0.171153
14857 5 0.47536 0.0536968 0.171716
17476 1 0.400892 0.0849335 0.170787
14934 5 0.43497 0.0582272 0.178264
14930 5 0.43565 0.116231 0.173677
17384 1 0.404358 0.0229712 0.174331
17450 6 0.404458 0.0159847 0.153408
17492 7 0.416314 0.0262255 0.151321
17491 7 0.395865 0.0143519 0.146225
14928 3 0.452992 0.121575 0.155538
15247 9 0.468226 0.124352 0.153344
14878 6 0.441732 0.00236781 0.23324
14875 4 0.459791 0.0807477 0.249158
2065 6 0.0130502 0.204268 0.156268
25290 7 0.122269 0.149106 0.153151
25280 5 0.0443694 0.127437 0.15945
2033 7 0.0621892 0.143873 0.135482
25253 6 0.106413 0.147821 0.152996
2032 7 0.0539736 0.169475 0.135264
1995 6 0.0480328 0.153482 0.136951
25275 1 0.0994415 0.148321 0.173282
25278 8 0.0370628 0.151258 0.152396
22957 9 0.0907223 0.213228 0.150381
22732 3 0.104284 0.217259 0.155458
25285 4 0.0455475 0.170798 0.161811
25359 5 0.0367697 0.182058 0.180407
25356 5 0.0758171 0.243937 0.173247
25354 4 0.0546576 0.210066 0.16879
25351 2 0.0538209 0.235495 0.169121
25286 5 0.0767023 0.177088 0.172888
25279 2 0.0532895 0.18537 0.170908
25259 1 0.107344 0.21399 0.174307
25355 5 0.0356357 0.241763 0.176946
25433 7 0.0520029 0.193705 0.146277
25394 6 0.0544379 0.20402 0.140414
25432 7 0.0496674 0.218094 0.143405
1933 1 0.00391026 0.148758 0.175373
25291 7 0.104502 0.157509 0.146511
2104 7 0.0159927 0.188301 0.156273
25284 3 0.00652866 0.150504 0.155884
2103 7 0.0273113 0.210945 0.156942
25353 3 0.0497522 0.242447 0.156815
1963 7 0.12693 0.228655 0.131784
2017 1 0.00175109 0.209797 0.176277
22906 9 0.135582 0.126352 0.147339
22657 2 0.151686 0.124395 0.162295
1962 7 0.147291 0.242797 0.137254
22741 7 0.220166 0.136909 0.146246
22740 7 0.221789 0.160235 0.147671
1927 6 0.138858 0.226923 0.137237
22726 8 0.133791 0.21734 0.151742
22730 5 0.136398 0.180173 0.174296
22700 6 0.210486 0.14922 0.14821
22636 1 0.206439 0.149036 0.168696
22729 4 0.150967 0.149275 0.161881
22733 4 0.14097 0.236446 0.162269
20188 7 0.214286 0.213961 0.145983
20189 7 0.219626 0.231895 0.154786
20148 6 0.207645 0.221754 0.152317
22728 5 0.143463 0.192412 0.157743
22725 2 0.152511 0.174491 0.164851
20178 5 0.236728 0.243807 0.17333
20183 5 0.237385 0.182639 0.172816
22723 1 0.201615 0.212421 0.171656
22731 5 0.176624 0.178851 0.168063
22734 5 0.176031 0.243699 0.171845
20110 3 0.245536 0.174429 0.154455
20354 9 0.25501 0.17649 0.148078
22807 5 0.136446 0.247438 0.180983
20177 4 0.252574 0.213544 0.161133
20105 2 0.253429 0.1886 0.163974
17800 9 0.348026 0.132492 0.149268
20173 2 0.253269 0.238827 0.164336
17555 4 0.355155 0.149855 0.165535
20102 1 0.299676 0.1489 0.170659
17554 3 0.351594 0.180484 0.151768
17801 9 0.363341 0.19066 0.149171
17558 3 0.347413 0.236286 0.153113
17552 2 0.354835 0.174909 0.163787
17556 5 0.334246 0.182423 0.169829
20111 5 0.27658 0.183747 0.168128
20084 1 0.30675 0.212404 0.169961
20179 5 0.277201 0.24689 0.166924
17631 5 0.333188 0.247701 0.171528
17557 5 0.376444 0.183169 0.16822
17564 7 0.404956 0.220735 0.142316
17566 7 0.418582 0.161497 0.149194
17563 7 0.385169 0.223737 0.150255
14938 7 0.44168 0.19691 0.143949
14937 7 0.427817 0.207305 0.135722
17565 7 0.395472 0.171337 0.148854
17525 6 0.403699 0.158941 0.152211
17459 1 0.404216 0.148525 0.171701
17526 6 0.396559 0.213536 0.14807
14899 6 0.44236 0.206216 0.137853
15248 9 0.448868 0.153158 0.155082
15002 3 0.451772 0.240229 0.150292
14932 3 0.447372 0.169438 0.153366
15000 2 0.454969 0.232663 0.162386
15003 4 0.450976 0.207652 0.162079
14927 2 0.452526 0.183454 0.164014
15005 5 0.478306 0.239994 0.165181
14933 5 0.47601 0.17823 0.168073
15004 5 0.436474 0.240757 0.169595
17550 1 0.399672 0.213129 0.168554
15008 5 0.435023 0.178874 0.172458
15249 9 0.446858 0.225902 0.146121
22920 9 0.171996 0.128822 0.249222
17559 5 0.374518 0.247111 0.167159
14925 1 0.431162 0.180546 0.192379
25471 9 0.0628827 0.0150681 0.243548
25198 5 0.0989328 0.0861154 0.190085
25195 5 0.0980598 0.0236221 0.190963
25268 5 0.0592541 0.0852083 0.194537
25258 1 0.029751 0.120792 0.196818
25207 1 0.033489 0.0582271 0.195489
25191 2 0.0825715 0.0922152 0.198903
25263 4 0.0794657 0.116707 0.202382
25197 4 0.0812942 0.0762738 0.208559
25192 5 0.0774465 0.0341473 0.207785
25196 3 0.0402049 0.054508 0.215371
25190 8 0.0707041 0.0551765 0.216682
25510 9 0.0272114 0.0558094 0.220238
25517 7 0.07514 0.0463971 0.23769
25240 6 0.0847442 0.0506516 0.230598
22685 7 0.0885112 0.100465 0.217696
25506 7 0.0968033 0.0387186 0.230665
22649 6 0.0959903 0.107284 0.223233
25194 5 0.0561395 0.017419 0.194307
25189 2 0.0790933 0.0179378 0.198851
25201 6 0.0235215 0.0549084 0.245634
25204 7 0.0486516 0.0137488 0.214706
25205 7 0.0236655 0.00984293 0.216651
25234 6 0.0370223 0.00224517 0.214551
25309 7 0.0634085 0.106926 0.240467
22684 7 0.0847313 0.112978 0.228773
25270 6 0.062133 0.12061 0.235963
25236 7 0.0397143 0.0588115 0.245241
22651 7 0.111539 0.041597 0.209597
25308 6 0.0234847 0.122921 0.216642
25237 7 0.0241156 0.0389896 0.246763
25227 3 0.0659714 0.026969 0.248233
25231 3 0.06646 0.0803715 0.24943
25269 6 0.00262983 0.1187 0.242494
25271 7 0.0339823 0.124457 0.222877
14909 2 0.482224 0.215201 0.200052
25472 9 0.0775178 0.0689479 0.25029
20062 7 0.118048 0.0923469 0.232919
22760 7 0.119288 0.115956 0.242064
22650 7 0.130488 0.0346838 0.217758
22686 7 0.150136 0.0228771 0.230685
22635 1 0.128317 0.0540556 0.191717
22643 5 0.197492 0.0889498 0.188644
22572 5 0.198069 0.0224202 0.189178
20083 1 0.225929 0.115869 0.188764
22683 6 0.127583 0.0422561 0.210726
20134 7 0.225833 0.0498954 0.239998
22687 7 0.153104 0.0469186 0.226539
20061 7 0.117825 0.0687561 0.235933
22648 6 0.142922 0.0384704 0.230439
20023 6 0.124783 0.0825967 0.237995
22919 9 0.148211 0.0951014 0.244259
22931 9 0.178122 0.0165936 0.213593
22655 1 0.13371 0.115863 0.192367
20029 1 0.232128 0.0558215 0.191322
22642 5 0.155653 0.078854 0.192174
20063 7 0.183622 0.0731937 0.219908
22637 2 0.179175 0.0796288 0.196599
22641 4 0.182889 0.0549769 0.199376
22565 2 0.181557 0.0297219 0.197977
22640 5 0.177865 0.0950443 0.20636
20060 6 0.230667 0.0587664 0.212509
20022 6 0.18688 0.0622369 0.225464
20064 7 0.183222 0.0494626 0.221453
22647 5 0.157712 0.0221531 0.194863
20096 6 0.211316 0.0535926 0.244054
22571 3 0.189096 0.0174979 0.208528
22638 8 0.167884 0.117466 0.214658
22918 9 0.159733 0.0207726 0.243614
22965 7 0.174419 0.121332 0.236199
22688 6 0.177437 0.127225 0.228537
17509 7 0.239037 0.010863 0.224749
20024 7 0.219457 0.0586404 0.218299
20135 7 0.202921 0.0590381 0.238324
20098 7 0.231848 0.100878 0.214598
20025 7 0.241189 0.0706308 0.214825
20131 6 0.221961 0.10713 0.209287
17471 6 0.238449 0.0247313 0.228926
20099 7 0.208545 0.0970248 0.208506
20130 6 0.248654 0.0923728 0.227247
17510 7 0.234907 0.035423 0.224085
20133 7 0.209177 0.132552 0.240404
22675 3 0.162278 0.0981858 0.248701
20051 3 0.268217 0.0277884 0.246829
20101 7 0.251572 0.0988105 0.234136
20365 9 0.258724 0.0204886 0.241749
20020 5 0.300465 0.0838352 0.192572
20017 5 0.296973 0.0236148 0.191153
20016 5 0.256756 0.0252666 0.194388
17477 1 0.331655 0.117794 0.192351
17458 1 0.325647 0.0539071 0.192586
20095 5 0.256324 0.0863538 0.194052
17464 5 0.355023 0.0885698 0.1937
20013 2 0.279051 0.0915648 0.198776
20379 9 0.290308 0.069908 0.210488
20089 4 0.281145 0.11755 0.201032
20019 3 0.277603 0.0785953 0.209898
20378 9 0.274104 0.0449199 0.210548
17466 6 0.324289 0.053475 0.212462
17493 7 0.315906 0.0432953 0.216353
17494 7 0.32703 0.0650652 0.218094
17473 7 0.338797 0.112038 0.218188
14960 7 0.355255 0.0808991 0.221029
17548 7 0.286963 0.114173 0.221842
14918 6 0.343316 0.0836067 0.226599
14959 7 0.351842 0.0842696 0.233004
17469 5 0.354859 0.0197328 0.196568
17456 7 0.292023 0.0465793 0.244423
17457 7 0.286227 0.0701771 0.246799
20014 3 0.283457 0.0326899 0.209204
20012 2 0.279399 0.0180523 0.199309
17503 6 0.299951 0.0603206 0.245752
17499 3 0.366872 0.0867197 0.246164
20366 9 0.280152 0.109638 0.246935
20100 7 0.262846 0.0898365 0.223675
17508 6 0.331884 0.122122 0.213685
17860 7 0.3583 0.00680801 0.223587
15011 7 0.490842 0.215683 0.150222
20056 3 0.268614 0.0982202 0.248351
17813 9 0.379869 0.0969147 0.246219
17472 7 0.316829 0.125278 0.216581
12408 7 0.467903 0.126705 0.229164
14838 5 0.493974 0.022641 0.19389
14847 7 0.448523 0.0126496 0.239419
17463 4 0.374722 0.0545439 0.198267
17465 5 0.395521 0.0867997 0.191965
17460 2 0.375994 0.0795007 0.198513
17386 2 0.376804 0.0294389 0.201273
15272 9 0.486176 0.00862972 0.218382
17462 3 0.377408 0.0880561 0.210205
17391 3 0.379524 0.026194 0.213708
14840 5 0.494439 0.0850506 0.19315
14906 1 0.424549 0.116056 0.192948
17392 5 0.39449 0.0216317 0.193684
17826 9 0.392977 0.0896321 0.212385
14849 1 0.429191 0.0538005 0.196998
14917 5 0.453436 0.0850201 0.197988
14837 5 0.453541 0.0245267 0.199055
14911 4 0.481177 0.119468 0.200661
14834 2 0.476643 0.0937051 0.200789
14839 3 0.483803 0.08877 0.212409
14955 6 0.418072 0.0555277 0.2162
15273 9 0.489027 0.102311 0.216056
14922 7 0.4228 0.0588729 0.223809
14923 7 0.406492 0.0441224 0.217318
15308 7 0.471936 0.0664178 0.223205
14884 6 0.462948 0.0550055 0.227413
15297 7 0.469842 0.0397758 0.225256
15303 9 0.406745 0.0496058 0.241433
14868 8 0.449919 0.0579035 0.241517
14835 3 0.486607 0.0216204 0.213749
14874 3 0.419767 0.0563888 0.245317
14833 2 0.476197 0.015646 0.202646
14951 6 0.401562 0.116541 0.245447
12291 6 0.438942 0.120173 0.235071
14904 7 0.41193 0.119339 0.239254
12329 7 0.44458 0.108493 0.239764
17825 9 0.390864 0.0149952 0.214863
14942 7 0.422161 0.119838 0.219693
14914 6 0.416369 0.118579 0.212548
12366 6 0.483213 0.127812 0.226841
14861 7 0.497229 0.0250283 0.146593
17533 2 0.379216 0.207233 0.195928
22717 6 0.118928 0.130419 0.245931
25343 6 0.0112298 0.226544 0.241676
25345 7 0.0480043 0.239563 0.222959
25272 7 0.00956753 0.130618 0.219089
25310 7 0.0637188 0.131768 0.241717
25484 9 0.0920965 0.132539 0.217003
25267 5 0.0988173 0.211884 0.194462
25265 5 0.0989613 0.148554 0.192849
25348 7 0.0174078 0.176516 0.224466
25347 7 0.00463375 0.188538 0.216371
25512 9 0.0122476 0.16505 0.239089
25303 3 0.0212506 0.17525 0.244108
25260 2 0.0828253 0.142728 0.201471
25264 5 0.0602813 0.150975 0.198717
25332 1 0.0288833 0.243068 0.197513
25276 1 0.0339385 0.182833 0.199365
25342 5 0.0591138 0.20924 0.20049
25337 4 0.0858577 0.24301 0.204635
25261 2 0.0827286 0.217528 0.202986
25266 3 0.0904013 0.205122 0.213789
25262 3 0.0928388 0.147149 0.212542
25485 9 0.104684 0.199707 0.212509
22720 7 0.116067 0.164966 0.21716
25377 6 0.0208107 0.185264 0.2183
25507 7 0.0761875 0.182042 0.22425
25518 7 0.0733491 0.155627 0.227582
25314 6 0.0745081 0.171861 0.230928
25297 8 0.0523882 0.177209 0.242172
22757 7 0.101836 0.183706 0.239902
22718 6 0.110712 0.190617 0.245563
22830 7 0.0835518 0.222044 0.227113
22791 6 0.0825758 0.234995 0.231196
22829 7 0.0786898 0.228396 0.238037
25381 7 0.0176828 0.21187 0.238713
22751 3 0.122805 0.241841 0.243538
25378 6 0.0340562 0.241616 0.21886
22796 7 0.111984 0.234579 0.215589
25346 7 0.0236939 0.234805 0.223514
22960 9 0.112426 0.229283 0.241165
20208 7 0.196431 0.224496 0.244472
22958 9 0.128767 0.103191 0.218001
22954 7 0.182059 0.143748 0.230027
22758 7 0.12635 0.190142 0.242716
22756 6 0.126655 0.176319 0.213885
22644 3 0.138431 0.110401 0.21145
20097 6 0.218626 0.12877 0.246285
22825 6 0.126614 0.240991 0.217803
22795 7 0.122185 0.246053 0.225541
22759 7 0.134966 0.134643 0.246349
22706 1 0.129035 0.182084 0.193968
20165 6 0.208115 0.235708 0.246172
22646 5 0.199095 0.14657 0.189768
22713 5 0.199094 0.215165 0.19261
20103 1 0.23262 0.180948 0.191972
22719 7 0.135859 0.180997 0.220218
22716 5 0.158828 0.145432 0.19224
20154 1 0.228652 0.244505 0.193066
22724 1 0.134687 0.244619 0.19801
22722 7 0.157149 0.194102 0.238757
22645 4 0.177742 0.140425 0.207478
22712 5 0.159098 0.213209 0.196916
22639 2 0.180571 0.154006 0.19742
22708 2 0.181516 0.204433 0.199789
22711 4 0.179301 0.179236 0.198066
22710 3 0.187172 0.209131 0.211483
22932 9 0.189206 0.195257 0.215723
20167 7 0.21072 0.232864 0.213586
20204 6 0.223553 0.243108 0.213745
20092 3 0.235036 0.180577 0.211341
22721 7 0.15153 0.169995 0.237519
20406 9 0.224009 0.176992 0.217693
22966 7 0.17435 0.224897 0.22369
22745 8 0.154457 0.240992 0.24087
20166 6 0.186725 0.17252 0.22448
20206 7 0.17184 0.177271 0.225056
22755 6 0.149575 0.184603 0.233761
20205 7 0.186681 0.160691 0.218602
22762 6 0.175048 0.239404 0.228309
20207 7 0.207858 0.245439 0.24046
20169 7 0.24147 0.2375 0.236645
22679 3 0.166911 0.144404 0.248047
20170 7 0.245105 0.233046 0.225196
20132 7 0.232914 0.136041 0.244775
20367 9 0.261161 0.171984 0.249035
17544 6 0.30223 0.13312 0.245587
17583 7 0.305748 0.129578 0.237878
17582 7 0.288068 0.140954 0.245007
17617 7 0.280632 0.249314 0.229536
17578 6 0.290492 0.128957 0.223112
20127 3 0.266533 0.205383 0.248986
17504 3 0.369437 0.146073 0.249595
20203 6 0.252924 0.232807 0.231961
17571 3 0.371811 0.216613 0.248003
20091 5 0.296653 0.147997 0.190754
20094 5 0.297864 0.210888 0.189409
17549 7 0.281958 0.136241 0.216883
17531 1 0.324971 0.179909 0.190605
20090 5 0.254046 0.140334 0.192742
17551 1 0.331967 0.242921 0.191875
17538 5 0.357198 0.213005 0.190545
17545 6 0.327538 0.244197 0.245155
20164 5 0.258771 0.212879 0.192919
20368 9 0.258633 0.213702 0.243575
17543 5 0.356358 0.148692 0.193915
20085 2 0.277412 0.141467 0.197923
20086 8 0.265433 0.180909 0.214572
20087 2 0.281098 0.217473 0.197622
20159 4 0.283922 0.242315 0.199629
20088 5 0.272575 0.157141 0.207083
20093 4 0.278404 0.201824 0.20657
17547 7 0.31297 0.166735 0.216654
17540 3 0.336282 0.24485 0.211745
17579 6 0.322675 0.168184 0.210631
17546 7 0.331779 0.155031 0.210803
20136 6 0.28056 0.178525 0.22827
20413 7 0.273249 0.187768 0.235152
20402 7 0.281596 0.161769 0.231086
17534 8 0.3669 0.243216 0.214656
17827 9 0.363705 0.138949 0.211607
17814 9 0.36789 0.156991 0.243711
17815 9 0.370145 0.203911 0.24302
17580 7 0.334787 0.230494 0.248768
17850 7 0.367787 0.23632 0.235684
17584 6 0.376188 0.24439 0.229315
15026 6 0.378308 0.179992 0.233393
20123 3 0.259285 0.156011 0.249327
17854 9 0.324099 0.246422 0.217652
14913 5 0.494255 0.150768 0.191939
14915 3 0.478613 0.204113 0.211119
15030 7 0.397743 0.234381 0.243969
14947 3 0.46253 0.158183 0.246929
14997 7 0.388654 0.174216 0.238623
14952 3 0.468865 0.211198 0.248289
14910 3 0.473387 0.15671 0.210025
17468 5 0.393806 0.14912 0.19055
14956 6 0.432156 0.178557 0.213054
14916 5 0.498716 0.204407 0.192263
14905 7 0.388958 0.128296 0.244383
14991 5 0.459309 0.211996 0.194517
14996 7 0.383766 0.172725 0.226973
14908 2 0.475892 0.14405 0.199293
17536 5 0.376095 0.222363 0.205385
14920 7 0.442227 0.166138 0.215247
15275 9 0.464343 0.198431 0.21219
17467 3 0.378628 0.146024 0.210532
14941 7 0.403769 0.12839 0.212648
15262 9 0.456393 0.210965 0.243943
14958 7 0.432986 0.169877 0.24475
15031 7 0.420166 0.240169 0.239422
14921 7 0.419025 0.17585 0.217414
15274 9 0.478338 0.171721 0.209296
15261 9 0.477921 0.162993 0.245439
12328 7 0.444089 0.133496 0.238303
14985 4 0.486974 0.239558 0.200963
12407 7 0.482993 0.139003 0.222005
14919 6 0.4198 0.179527 0.245936
14912 5 0.454578 0.144818 0.193148
12353 7 0.493314 0.19417 0.245147
14979 1 0.430736 0.240906 0.190516
17461 2 0.377818 0.157046 0.199139
14992 6 0.41211 0.239191 0.245834
17537 4 0.377701 0.182615 0.199178
14957 7 0.414681 0.190243 0.240397
17539 5 0.401601 0.212197 0.189706
2441 5 0.00191498 0.0273956 0.192421
17802 9 0.34076 0.244927 0.147626
22747 5 0.161002 0.219054 0.249372
20009 7 0.223149 0.00546537 0.240109
2508 9 0.00196746 0.0993681 0.214376
14870 5 0.459728 0.0340767 0.248548
20008 7 0.199776 0.00819821 0.244299
14848 1 0.499645 0.0217141 0.17395
22904 9 0.144793 0.00252709 0.150476
20045 7 0.213489 0.00159187 0.215822
25304 4 0.0588114 0.201855 0.248685
17427 4 0.36064 0.0155643 0.250069
25178 3 0.0313316 0.0635462 0.306914
25245 3 0.030872 0.120974 0.303985
25251 5 0.0159374 0.056783 0.287417
25246 4 0.036593 0.088311 0.29116
25243 2 0.0364687 0.113867 0.291984
25224 1 0.0899697 0.0859903 0.28921
25179 5 0.0579065 0.054538 0.290688
25173 2 0.0354055 0.0641336 0.294386
25170 1 0.0822598 0.0245296 0.288335
25232 5 0.0817809 0.0844374 0.26827
25230 5 0.0795957 0.0282969 0.268485
22671 1 0.112243 0.0557534 0.267731
25171 1 0.017006 0.0566409 0.265855
25229 5 0.0387742 0.0209899 0.263912
25294 1 0.007968 0.117152 0.263579
25306 5 0.039827 0.0854326 0.263211
25226 2 0.0631033 0.0920268 0.260667
25225 2 0.0624896 0.0183037 0.260204
25496 9 0.0252242 0.0499717 0.309265
25288 6 0.10246 0.0924354 0.308726
25497 9 0.0267579 0.107149 0.307537
22619 1 0.113535 0.120435 0.265942
25300 4 0.0666686 0.117858 0.259119
25248 5 0.0609141 0.122367 0.289753
22699 5 0.117341 0.119421 0.286845
22624 5 0.120242 0.0591839 0.288402
25183 7 0.104274 0.0339062 0.31015
25218 6 0.0904582 0.0276394 0.308727
25257 7 0.111228 0.105602 0.310229
1930 7 0.00883585 0.0219294 0.307541
25247 5 0.0178022 0.12083 0.284547
25256 7 0.112085 0.0789807 0.309421
22626 3 0.133731 0.12435 0.306226
19407 7 0.211785 0.00153392 0.400377
22622 3 0.130819 0.0550339 0.307396
22623 4 0.138203 0.0237706 0.295359
22681 5 0.140267 0.0305723 0.263964
22620 2 0.137475 0.0492919 0.295407
19999 4 0.22857 0.048342 0.300753
19993 2 0.235242 0.0650581 0.292409
20068 2 0.23675 0.115078 0.29386
20071 4 0.234362 0.0901015 0.295518
22625 5 0.160217 0.0577138 0.292274
22627 5 0.159628 0.115732 0.289788
22618 1 0.183956 0.0877427 0.286283
20076 5 0.21811 0.0625222 0.28291
22600 1 0.187498 0.0256673 0.286788
22609 5 0.180073 0.0288204 0.267835
22678 5 0.177337 0.0915339 0.267525
19990 1 0.217616 0.0583343 0.263634
22677 5 0.138577 0.0871729 0.263009
20129 5 0.241903 0.0886745 0.264124
20053 5 0.239206 0.0252209 0.261508
22602 2 0.163522 0.0332801 0.259127
22673 2 0.161232 0.0838363 0.258898
22676 4 0.165945 0.0587565 0.256699
19998 3 0.191717 0.0259606 0.306633
19992 8 0.22232 0.0247839 0.308521
20119 1 0.211084 0.1207 0.266199
20072 5 0.218853 0.122704 0.28676
19994 5 0.232308 0.00551469 0.298683
22943 9 0.145611 0.0573666 0.311231
20070 3 0.233126 0.127961 0.304843
1825 7 0.00669127 0.0311567 0.336785
20391 9 0.234127 0.117948 0.310829
22608 3 0.16784 0.0175068 0.249899
16837 7 0.318499 0.00176577 0.403393
20000 5 0.258886 0.0576356 0.289604
17448 5 0.358916 0.118739 0.288179
17440 8 0.322228 0.0888297 0.30897
17446 3 0.292124 0.0861029 0.307105
17442 5 0.329786 0.0663407 0.300629
17447 4 0.325663 0.110497 0.298819
17443 4 0.336681 0.0285754 0.293739
17439 2 0.336345 0.0537339 0.291071
20048 1 0.290627 0.0895062 0.287998
19989 1 0.283715 0.0278202 0.286548
17445 5 0.359297 0.0591722 0.287803
17444 5 0.317792 0.0561295 0.283102
20057 5 0.281876 0.0894966 0.268168
17495 1 0.310241 0.0562228 0.265593
17506 5 0.34091 0.0244879 0.265045
20054 5 0.280002 0.0279008 0.265418
17438 1 0.316453 0.120782 0.263883
17501 5 0.339361 0.0871637 0.26121
17421 2 0.36252 0.0292061 0.259854
20050 2 0.263385 0.0988272 0.261017
20049 2 0.261836 0.0184799 0.258343
17497 2 0.363209 0.0789971 0.258029
20040 6 0.291883 0.0222299 0.306728
17500 4 0.364573 0.0530242 0.256407
20073 5 0.260366 0.119894 0.290068
20124 4 0.26361 0.123403 0.263661
17524 5 0.318461 0.124712 0.281818
20004 7 0.28632 0.0141797 0.312965
17369 2 0.336708 0.00348408 0.293302
17502 5 0.381042 0.0861192 0.265618
17428 5 0.381857 0.0223129 0.266193
17437 1 0.384585 0.0891292 0.285629
14822 3 0.424562 0.0595315 0.304683
14891 4 0.435044 0.0902088 0.293611
14817 2 0.434744 0.0644474 0.293282
14887 2 0.436304 0.114644 0.291055
14823 5 0.456707 0.0543831 0.290483
17418 1 0.389005 0.0257945 0.287262
14893 5 0.460436 0.121069 0.287977
14897 5 0.418651 0.0575205 0.283824
14892 5 0.419048 0.117212 0.28224
14866 1 0.487246 0.0870356 0.286621
14814 1 0.480612 0.025964 0.285743
14873 5 0.480244 0.0287779 0.265369
14876 5 0.483955 0.0865106 0.265223
14815 1 0.417289 0.0550714 0.264831
14943 1 0.412607 0.116899 0.265141
14954 5 0.442397 0.0915362 0.263916
17412 6 0.395197 0.0257796 0.307571
14869 2 0.465481 0.0952869 0.258452
14872 5 0.441432 0.0249875 0.264106
14867 2 0.462719 0.0191733 0.257927
14948 4 0.466819 0.120446 0.254921
14860 6 0.48782 0.0850277 0.30702
17379 7 0.404002 0.0398608 0.306406
15286 9 0.432506 0.0669027 0.310262
17380 7 0.40734 0.0148673 0.307788
21939 7 0.118525 0.00536674 0.405879
1402 3 0.001377 0.192099 0.429757
25255 7 0.0866394 0.171453 0.310152
25296 2 0.0618511 0.142223 0.261765
25241 1 0.0818593 0.148598 0.288886
25249 3 0.0256611 0.178434 0.302198
25360 6 0.0908483 0.215643 0.307326
25320 4 0.035661 0.214447 0.291795
25317 2 0.035368 0.238634 0.289698
25295 1 0.0876896 0.212721 0.286155
25250 5 0.0568802 0.179077 0.289855
25244 2 0.0331972 0.188478 0.29121
25325 5 0.0181333 0.180863 0.282139
25302 5 0.0794099 0.152657 0.268253
25305 5 0.0813531 0.210156 0.265727
22742 1 0.109061 0.180426 0.265897
25301 5 0.0378761 0.145895 0.265097
25242 1 0.0124798 0.17846 0.263016
25376 5 0.0389562 0.217104 0.262276
25298 2 0.0627997 0.217245 0.258317
25289 6 0.0739481 0.161779 0.30873
25366 1 0.00902864 0.240952 0.261319
25498 9 0.0243943 0.190877 0.307227
25371 4 0.0685901 0.241813 0.255027
22690 1 0.115545 0.242458 0.262262
22773 5 0.119317 0.243954 0.281081
25322 5 0.0588223 0.245072 0.287025
22695 5 0.114352 0.18377 0.287942
25330 7 0.102687 0.22459 0.310623
25331 7 0.0970045 0.2023 0.309819
25321 5 0.0164373 0.24437 0.281782
21974 6 0.109372 0.00243148 0.39943
22944 9 0.130619 0.13888 0.309273
22697 3 0.124216 0.245077 0.301812
25254 7 0.0633908 0.171228 0.303894
11769 7 0.496703 0.0877931 0.414044
25499 9 0.0272962 0.238836 0.306314
22621 2 0.13742 0.125943 0.293449
22693 3 0.12622 0.175411 0.306345
22945 9 0.135123 0.186605 0.310102
22694 4 0.138554 0.150518 0.291363
22691 2 0.134022 0.174806 0.294454
22748 4 0.165458 0.179795 0.257486
22674 2 0.163287 0.155056 0.25948
22754 5 0.139959 0.14938 0.263361
20202 5 0.241316 0.211923 0.264436
22672 1 0.188258 0.150758 0.287963
20142 4 0.234763 0.214634 0.294292
20147 5 0.218049 0.183174 0.287027
22696 5 0.157086 0.184983 0.292483
20074 3 0.232405 0.179572 0.306547
20069 2 0.236394 0.189449 0.29467
22689 1 0.182239 0.21424 0.289002
20392 9 0.235352 0.164334 0.306296
20139 2 0.236807 0.239533 0.293974
20067 1 0.214041 0.184445 0.266725
22680 5 0.181001 0.147266 0.267215
22750 5 0.182181 0.212779 0.266932
22749 5 0.140326 0.206018 0.265022
20125 5 0.238867 0.155458 0.265872
22744 2 0.163521 0.205283 0.259086
22737 6 0.192406 0.221041 0.309189
22736 6 0.193481 0.154323 0.30803
22698 5 0.157011 0.243496 0.2901
20190 1 0.209898 0.242949 0.266591
22703 7 0.209186 0.220904 0.308103
20143 5 0.218643 0.247028 0.285829
22705 7 0.20553 0.16373 0.311743
22704 7 0.202487 0.139956 0.30707
20141 3 0.229752 0.245526 0.305516
22963 7 0.141046 0.225537 0.312048
14258 5 0.487288 0.145721 0.466226
20393 9 0.234261 0.233834 0.310796
14331 5 0.486009 0.20877 0.469615
17441 2 0.335315 0.126759 0.291157
17572 4 0.368362 0.183746 0.25841
20126 5 0.28225 0.157319 0.267517
20075 5 0.259395 0.18088 0.291264
20066 1 0.285197 0.151664 0.288828
17516 2 0.338699 0.176103 0.295058
17518 3 0.334924 0.186647 0.30657
20079 7 0.308671 0.201241 0.310156
20114 6 0.294788 0.210642 0.309606
17519 4 0.338165 0.151742 0.295453
17521 5 0.360484 0.184748 0.290209
20120 1 0.289062 0.213893 0.288856
17520 5 0.317923 0.182898 0.28824
17595 5 0.319166 0.242173 0.285949
17567 1 0.310939 0.182958 0.266711
20128 5 0.282617 0.210259 0.266826
17577 5 0.341869 0.15309 0.26389
17573 5 0.341518 0.213576 0.261962
17498 2 0.365227 0.158688 0.260674
20121 2 0.261006 0.148408 0.261559
17569 2 0.366184 0.208461 0.259775
20122 2 0.264291 0.217867 0.260007
20196 4 0.2661 0.244197 0.258486
20113 6 0.285656 0.138714 0.309351
17523 5 0.36037 0.24212 0.28945
17515 1 0.316242 0.244927 0.264889
17839 9 0.338078 0.175112 0.311746
17840 9 0.324597 0.234267 0.305909
20144 5 0.26022 0.246243 0.290892
17522 3 0.335198 0.245836 0.305102
17529 7 0.40217 0.22276 0.308452
17561 6 0.397236 0.207388 0.308405
14890 5 0.430371 0.129412 0.300513
15020 4 0.463455 0.246617 0.260588
17505 5 0.382515 0.150949 0.268368
17574 5 0.382072 0.217193 0.268225
17514 1 0.384942 0.214191 0.288328
14945 2 0.462845 0.145705 0.25778
14886 1 0.418634 0.181649 0.266733
14894 3 0.394245 0.151179 0.306792
14972 5 0.420214 0.185333 0.283752
14896 5 0.460903 0.182171 0.289586
14888 8 0.423937 0.151395 0.309281
12342 3 0.495057 0.217162 0.308801
14895 4 0.431662 0.173118 0.300678
14964 2 0.437942 0.239436 0.294257
14967 4 0.433158 0.21434 0.295198
14889 2 0.437034 0.189644 0.292449
17496 1 0.39034 0.151984 0.28742
14944 1 0.491361 0.214011 0.288593
14885 1 0.48491 0.150181 0.286839
14953 5 0.481906 0.21303 0.267685
14936 6 0.483858 0.153528 0.30693
14950 5 0.480621 0.154443 0.265601
15025 5 0.442664 0.212995 0.264464
14949 5 0.441213 0.151448 0.262715
14946 2 0.464405 0.221006 0.259766
15015 1 0.413299 0.245076 0.265922
14969 5 0.461704 0.24467 0.291495
14900 7 0.471765 0.154144 0.311967
17530 7 0.410641 0.198305 0.307588
14968 5 0.421179 0.245141 0.285136
12753 9 0.482287 0.222936 0.313421
14966 3 0.433929 0.248413 0.305674
25185 7 0.0609842 0.00752025 0.321003
25184 7 0.0840501 0.0300126 0.315353
24544 6 0.0783757 0.0369419 0.33575
24654 7 0.106275 0.0927433 0.334027
24655 7 0.0874522 0.0887446 0.325017
24614 6 0.0921501 0.0859698 0.332552
24820 9 0.0333405 0.0628637 0.332618
24550 1 0.0873857 0.0876982 0.353615
24571 2 0.0348522 0.0618429 0.349163
24576 3 0.0308166 0.0518468 0.337789
24577 5 0.0581035 0.0547695 0.352128
24639 2 0.0353162 0.113269 0.349682
24643 4 0.0350324 0.08773 0.348785
24644 5 0.0175618 0.117347 0.358467
24645 5 0.0579156 0.121753 0.351859
24649 5 0.0178512 0.0547688 0.357468
24568 1 0.0839406 0.0247669 0.355207
22022 5 0.115424 0.060319 0.354786
22097 5 0.118818 0.117774 0.35425
24582 7 0.0834905 0.0493889 0.3319
24581 7 0.0636482 0.0423597 0.338266
14381 3 0.494996 0.247337 0.427332
22267 9 0.121429 0.0614959 0.334114
24653 7 0.0651469 0.14949 0.334218
22017 1 0.115088 0.118954 0.374521
24560 5 0.082978 0.0884323 0.374321
22266 9 0.129866 0.0046948 0.335253
22024 3 0.130624 0.110408 0.335244
20409 9 0.181169 0.0359346 0.311428
22633 7 0.173392 0.0459334 0.32511
22665 6 0.164975 0.0586549 0.321564
22634 7 0.152199 0.0597127 0.32581
22020 3 0.133444 0.0512931 0.336125
22032 7 0.201602 0.013888 0.3337
22021 4 0.135814 0.026368 0.352116
20065 6 0.241498 0.0289312 0.320191
22631 7 0.177762 0.0796485 0.327746
22632 7 0.17082 0.0993177 0.336211
19714 9 0.225615 0.0730717 0.335624
22666 6 0.181892 0.0875787 0.334887
19468 3 0.231408 0.114252 0.336092
19398 3 0.230044 0.0593377 0.338498
19466 2 0.237232 0.111764 0.348078
19469 4 0.239166 0.0876138 0.351948
19393 2 0.236822 0.0626958 0.350982
19474 5 0.216821 0.0564779 0.357496
22016 1 0.181839 0.08801 0.355672
22018 2 0.135364 0.0505109 0.348863
22023 5 0.158905 0.0599605 0.351445
22025 5 0.159333 0.116914 0.349699
21925 1 0.186003 0.0247303 0.356802
21991 6 0.194031 0.027587 0.336055
20415 7 0.239833 0.0179202 0.326985
22031 7 0.206433 0.038181 0.336064
20416 7 0.243845 0.0434586 0.32423