ITEM: TIMESTEP
597000
ITEM: NUMBER OF ATOMS
25520
ITEM: BOX BOUNDS pp pp pp
-3.8600666592155802e-01 6.0084550255922579e+01
-1.9416189645350528e+00 5.9111904238534215e+01
-1.2638343075072044e+01 1.1191407548108016e+02
ITEM: ATOMS id type xs ys zs
25182 6 0.102281 0.0253223 0.151611
25252 6 0.11438 0.0809264 0.151424
25214 3 0.0408407 0.0435614 0.158243
25287 5 0.0307748 0.0526893 0.176617
25283 5 0.0709198 0.115996 0.170717
25282 5 0.030193 0.113876 0.176863
25281 4 0.0447456 0.0845114 0.165372
25277 2 0.0466714 0.109519 0.167608
25215 5 0.0717566 0.0541751 0.170932
25209 2 0.0476714 0.0590881 0.167437
25188 1 0.101506 0.0855606 0.171069
25458 9 0.037535 0.0532088 0.151406
25206 1 0.0969112 0.0226046 0.172126
25293 7 0.124077 0.0907513 0.148524
25219 7 0.0931182 0.0349961 0.146823
25220 7 0.0988963 0.0108755 0.149164
2433 1 0.000969954 0.0205992 0.174703
25457 9 0.041189 0.0147049 0.157803
25292 7 0.122759 0.0670185 0.15189
22735 5 0.12946 0.11515 0.171783
22660 5 0.13379 0.0549501 0.17393
22905 9 0.137108 0.0350064 0.151418
22662 3 0.150976 0.116064 0.153031
22658 3 0.146821 0.046352 0.153716
22656 2 0.150321 0.0450386 0.16637
20112 5 0.231457 0.0521586 0.174324
22663 5 0.170303 0.11768 0.169332
22654 1 0.195779 0.0851835 0.170247
22661 5 0.172052 0.0564524 0.169541
22659 4 0.151412 0.0197483 0.168745
22563 1 0.201382 0.0218046 0.174067
22629 6 0.207406 0.0271527 0.154601
22630 6 0.182499 0.0816657 0.15114
22667 7 0.175821 0.0679179 0.154051
22668 7 0.169862 0.0915412 0.152732
20108 5 0.227875 0.119969 0.171447
22670 7 0.198307 0.03468 0.149596
22669 7 0.221308 0.0301334 0.151791
20106 3 0.241418 0.114099 0.153235
20036 3 0.244338 0.056411 0.1551
20104 2 0.246572 0.109656 0.165354
20031 2 0.249553 0.0595089 0.167032
20107 4 0.246134 0.0851467 0.167961
22657 2 0.148215 0.125636 0.164629
22904 9 0.143924 0.00588263 0.15198
20353 9 0.254396 0.121641 0.14964
22517 7 0.254456 0.0314656 0.146516
20352 9 0.241304 0.0700811 0.151447
20118 7 0.303082 0.0718834 0.151372
20117 7 0.31673 0.0946151 0.152444
20077 6 0.303213 0.0863375 0.155257
17480 3 0.3397 0.0551095 0.156983
17799 9 0.338093 0.0713986 0.157332
17478 2 0.346763 0.0477119 0.168742
20109 5 0.269246 0.117454 0.168995
17482 5 0.328225 0.0533243 0.176924
20037 5 0.271165 0.05205 0.171541
20011 1 0.297427 0.0878201 0.174903
20028 1 0.294401 0.0218439 0.174039
17481 4 0.347369 0.0223357 0.16798
17484 3 0.344529 0.105782 0.158644
20003 6 0.2946 0.00423725 0.155485
17485 5 0.369313 0.121945 0.172745
20042 7 0.286242 0.0135397 0.150741
22482 6 0.259858 0.0186343 0.143054
17800 9 0.358554 0.1025 0.155225
17560 5 0.330056 0.117663 0.176797
17483 5 0.368371 0.0564215 0.172387
17479 2 0.346421 0.122892 0.167565
25343 6 0.00306259 0.244782 0.245349
17489 7 0.399169 0.0792253 0.14668
17490 7 0.416424 0.0809746 0.155224
17451 6 0.400881 0.0838077 0.154139
14856 3 0.443454 0.0449242 0.158378
15246 9 0.441721 0.0294371 0.159421
14929 4 0.443247 0.0806978 0.169337
14926 2 0.445757 0.105565 0.16948
14851 2 0.445611 0.0556087 0.170029
14931 5 0.470302 0.112112 0.172042
14857 5 0.468555 0.0478012 0.174792
17476 1 0.393437 0.0842654 0.174275
14934 5 0.428705 0.0490495 0.178148
14930 5 0.428079 0.115828 0.176894
17384 1 0.397307 0.0210568 0.175156
17450 6 0.400459 0.0189959 0.154606
17492 7 0.388436 0.00966688 0.152828
14848 1 0.495721 0.0203314 0.175513
17491 7 0.413 0.0092909 0.153669
14928 3 0.442014 0.112738 0.1576
15247 9 0.454096 0.119731 0.154653
14913 5 0.491125 0.146244 0.192981
12328 7 0.45516 0.156143 0.225374
25280 5 0.0373111 0.12485 0.158504
25290 7 0.117657 0.165325 0.155972
2033 7 0.0385996 0.127981 0.134418
25253 6 0.102601 0.15684 0.154713
2032 7 0.0469957 0.152911 0.133481
1995 6 0.0327359 0.143765 0.13586
25275 1 0.0953142 0.147311 0.172791
25278 8 0.0255556 0.148921 0.151722
22957 9 0.0925683 0.231059 0.154556
22732 3 0.102154 0.21683 0.155146
25285 4 0.0363203 0.169427 0.160036
25359 5 0.0297716 0.180649 0.178107
25356 5 0.0687779 0.242874 0.17178
25354 4 0.0467186 0.209846 0.166689
25351 2 0.0458212 0.235832 0.167766
25286 5 0.0696568 0.177113 0.171201
25279 2 0.0463855 0.184299 0.168766
25259 1 0.0982922 0.211255 0.174385
25355 5 0.0273869 0.241941 0.175979
25394 6 0.0741244 0.180998 0.143666
25291 7 0.0923186 0.165801 0.149612
25432 7 0.0617723 0.177275 0.148187
25433 7 0.0799973 0.193295 0.147689
25459 9 0.0406839 0.238213 0.151384
25353 3 0.0429038 0.248063 0.157387
1962 7 0.143612 0.197953 0.133801
22906 9 0.16176 0.122491 0.148888
22741 7 0.216713 0.13273 0.151604
22726 8 0.131815 0.214154 0.151869
1963 7 0.154003 0.222966 0.13476
22740 7 0.216633 0.157857 0.150326
1927 6 0.139379 0.212925 0.136324
22730 5 0.128889 0.179988 0.177653
22700 6 0.206331 0.145 0.151109
22636 1 0.199524 0.150256 0.170739
22729 4 0.144645 0.15046 0.16527
22733 4 0.138609 0.23663 0.160304
20188 7 0.175251 0.230951 0.159118
20189 7 0.193515 0.241944 0.152263
20148 6 0.187676 0.228048 0.153683
22728 5 0.137307 0.190928 0.159625
22725 2 0.145059 0.174684 0.168158
20178 5 0.228829 0.241934 0.175428
20183 5 0.229809 0.183126 0.175118
22723 1 0.192224 0.213013 0.173369
22731 5 0.167658 0.18105 0.171636
20110 3 0.236119 0.177334 0.156407
20173 2 0.247068 0.238056 0.167322
20105 2 0.246403 0.187906 0.166252
20177 4 0.242697 0.213569 0.164113
22734 5 0.167887 0.244255 0.172479
22807 5 0.129551 0.242854 0.179987
14862 7 0.491413 0.0186618 0.149125
20354 9 0.234861 0.188623 0.150505
17555 4 0.344556 0.146885 0.163064
20102 1 0.293388 0.149624 0.173129
17554 3 0.33885 0.184785 0.15377
17801 9 0.339195 0.200456 0.155013
17558 3 0.335816 0.231136 0.158357
17552 2 0.345387 0.172265 0.164636
17556 5 0.325948 0.179381 0.172013
20111 5 0.269354 0.180774 0.169604
20084 1 0.300417 0.210469 0.173137
20179 5 0.2707 0.242541 0.170605
17631 5 0.331933 0.242486 0.176833
17557 5 0.369755 0.175278 0.168055
17559 5 0.371536 0.24205 0.169315
17553 2 0.34677 0.247257 0.166931
17802 9 0.331258 0.241109 0.152439
17537 4 0.377601 0.1779 0.202521
17563 7 0.394182 0.223662 0.148749
17564 7 0.406622 0.207258 0.142853
17565 7 0.418997 0.133414 0.154007
17566 7 0.397346 0.139079 0.14769
14938 7 0.475749 0.205691 0.143138
14937 7 0.453969 0.194109 0.145371
17525 6 0.406829 0.143792 0.154018
17459 1 0.398064 0.147101 0.174481
17526 6 0.402397 0.211004 0.150232
14899 6 0.460724 0.206709 0.141915
15248 9 0.428354 0.166959 0.156267
15002 3 0.448549 0.239208 0.154866
14932 3 0.441142 0.177177 0.156026
15000 2 0.450861 0.231881 0.166787
15003 4 0.450166 0.206962 0.168978
14927 2 0.448358 0.18228 0.167956
15005 5 0.473407 0.24079 0.169721
14933 5 0.471263 0.171997 0.170619
15004 5 0.430281 0.240697 0.172613
17550 1 0.396555 0.206865 0.170592
15008 5 0.429914 0.17394 0.17534
15249 9 0.454137 0.226886 0.149868
22518 7 0.25273 0.00622365 0.146749
14924 1 0.495332 0.142043 0.173649
25237 7 0.0332339 0.0634288 0.242704
22686 7 0.0986684 0.0440341 0.24837
25236 7 0.0171298 0.0576218 0.23368
25227 3 0.0704277 0.0270253 0.249417
25471 9 0.0672896 0.0159437 0.243778
25198 5 0.0981289 0.0827864 0.192938
25195 5 0.0947264 0.0235221 0.192686
25268 5 0.057163 0.0800971 0.194423
25258 1 0.0263297 0.114801 0.194993
25207 1 0.0287968 0.0547191 0.196337
25191 2 0.0786614 0.089776 0.199519
25263 4 0.0781741 0.114691 0.200901
25197 4 0.0760126 0.0756585 0.209112
25192 5 0.0733612 0.0330248 0.210186
25196 3 0.0345056 0.0606078 0.215331
25190 8 0.0644214 0.0558843 0.217902
25510 9 0.0261517 0.0753114 0.217239
25517 7 0.0795175 0.0657399 0.237268
25240 6 0.0836347 0.0537665 0.230971
22685 7 0.0864406 0.0994178 0.218783
25506 7 0.0811398 0.0386419 0.235355
22649 6 0.0874809 0.11001 0.224633
25194 5 0.054626 0.0169349 0.195865
25189 2 0.0769597 0.0170768 0.201154
25308 6 0.0241736 0.114126 0.215329
25472 9 0.0592277 0.097268 0.243012
25272 7 0.0354132 0.11646 0.220903
25201 6 0.0191957 0.0567489 0.241234
25271 7 0.0131433 0.102901 0.218186
22650 7 0.109673 0.05413 0.214411
22684 7 0.0723365 0.112092 0.226818
22759 7 0.101927 0.116963 0.241119
22958 9 0.118818 0.117304 0.217303
22687 7 0.115547 0.0569501 0.241428
25205 7 0.0102756 0.00746196 0.219147
22635 1 0.123282 0.0539081 0.192502
22683 6 0.12586 0.0519359 0.212879
25309 7 0.0277934 0.107739 0.239121
22648 6 0.111652 0.0530719 0.249347
25231 3 0.0665917 0.08613 0.24767
22717 6 0.110109 0.125841 0.246851
25202 7 0.0700492 0.0115252 0.224285
25270 6 0.0424609 0.111328 0.236113
22613 7 0.123274 0.0057798 0.243253
22651 7 0.133882 0.0591285 0.218989
20097 6 0.20326 0.112109 0.24764
22655 1 0.128568 0.114965 0.192423
20062 7 0.145008 0.0757326 0.239475
20023 6 0.142162 0.0728691 0.23182
20134 7 0.214901 0.0741108 0.242684
20061 7 0.157361 0.0758045 0.229658
22643 5 0.193943 0.0854844 0.191215
22572 5 0.194447 0.0230417 0.194219
20083 1 0.221134 0.116736 0.192716
20029 1 0.228234 0.056002 0.194643
22642 5 0.152911 0.0806107 0.19479
20063 7 0.182968 0.0466307 0.220493
22637 2 0.176209 0.0786899 0.199657
22641 4 0.178022 0.0540759 0.202934
22565 2 0.175693 0.028773 0.201984
22640 5 0.172525 0.0940699 0.209262
20060 6 0.224021 0.0541934 0.214807
20022 6 0.183754 0.0606239 0.224213
20064 7 0.181602 0.0710112 0.218292
22647 5 0.154253 0.0205877 0.197022
20096 6 0.206962 0.061698 0.246059
22571 3 0.176523 0.0150146 0.213145
22638 8 0.162057 0.117753 0.21609
22644 3 0.13261 0.11469 0.212399
17471 6 0.244422 0.0276509 0.228594
20135 7 0.194669 0.0617906 0.240725
22965 7 0.168691 0.112015 0.237086
22577 7 0.149462 0.0406628 0.233615
20025 7 0.21013 0.0579669 0.219456
22688 6 0.17576 0.119282 0.230141
22612 6 0.151285 0.0240435 0.233865
22576 7 0.159937 0.0197774 0.227686
20024 7 0.232102 0.0433306 0.219288
20101 7 0.24191 0.0832404 0.227411
20130 6 0.237843 0.0922816 0.233848
22918 9 0.162283 0.0234834 0.247596
22931 9 0.162829 0.00687276 0.213454
20131 6 0.220326 0.121038 0.215201
20132 7 0.192164 0.101062 0.247593
22652 7 0.132695 0.00350662 0.223173
20133 7 0.213576 0.108103 0.241203
17510 7 0.245636 0.0311804 0.235818
20009 7 0.215608 -0.000508554 0.239651
20098 7 0.234386 0.120154 0.217893
20008 7 0.197614 0.00491162 0.24791
20100 7 0.250288 0.102748 0.233164
14921 7 0.432031 0.19222 0.222478
20095 5 0.249994 0.0880784 0.199616
17509 7 0.259489 0.0272909 0.225573
20366 9 0.25194 0.0856848 0.245085
20016 5 0.253486 0.0256199 0.197389
17456 7 0.289324 0.0522107 0.245277
20020 5 0.290923 0.0856079 0.195092
20017 5 0.294012 0.0267457 0.195324
17477 1 0.328021 0.11878 0.196241
17458 1 0.319991 0.0545291 0.195912
17464 5 0.350446 0.0855443 0.198613
20013 2 0.273356 0.0932719 0.203174
20379 9 0.27811 0.0988437 0.219666
20089 4 0.279121 0.118834 0.203392
20019 3 0.276811 0.0855793 0.21486
20378 9 0.293702 0.0238141 0.21655
17466 6 0.312263 0.0558068 0.21643
17493 7 0.322806 0.0657023 0.219217
17494 7 0.298462 0.0641929 0.216119
14960 7 0.347993 0.0934839 0.231133
14918 6 0.341447 0.0904426 0.224065
14959 7 0.352208 0.0920661 0.21846
17469 5 0.349682 0.0245635 0.199742
20014 3 0.277365 0.0225906 0.21456
20012 2 0.275103 0.0180081 0.20225
17503 6 0.304367 0.0536255 0.247052
17499 3 0.35904 0.0929344 0.245643
17578 6 0.278987 0.120628 0.227494
17457 7 0.310898 0.051579 0.240065
14847 7 0.358529 0.0504966 0.231976
14846 7 0.374193 0.0366357 0.238792
17473 7 0.333745 0.116249 0.21801
17583 7 0.326547 0.104891 0.244982
17544 6 0.316614 0.11838 0.244256
17460 2 0.374349 0.0788161 0.200334
17463 4 0.375649 0.05425 0.202942
17386 2 0.37395 0.0295877 0.202493
17549 7 0.290601 0.116445 0.232925
14878 6 0.373598 0.0441908 0.232141
17813 9 0.371489 0.103853 0.245829
17825 9 0.375997 0.0327955 0.219421
20051 3 0.260636 0.0350423 0.249347
17826 9 0.388207 0.0780035 0.215933
17462 3 0.38175 0.0893624 0.211469
17391 3 0.380362 0.0210258 0.213965
15272 9 0.479539 0.00991603 0.219587
14840 5 0.490446 0.0830787 0.195583
17465 5 0.390787 0.0842427 0.191483
14906 1 0.422429 0.117689 0.196919
17392 5 0.390439 0.0212337 0.19398
14849 1 0.425341 0.051884 0.198582
14917 5 0.449306 0.0831041 0.199239
14837 5 0.451547 0.023436 0.199932
14911 4 0.47066 0.116964 0.2029
14834 2 0.471957 0.091143 0.202469
14839 3 0.475144 0.0845724 0.214477
14955 6 0.416678 0.0553848 0.217871
15273 9 0.474407 0.0981425 0.218697
14922 7 0.402425 0.0541234 0.221689
14923 7 0.42823 0.0566524 0.223765
15308 7 0.463876 0.0682408 0.226161
14884 6 0.457226 0.0533321 0.229713
15297 7 0.468043 0.0400316 0.227296
15303 9 0.403444 0.0473322 0.241282
14868 8 0.446851 0.0539384 0.244173
14835 3 0.480654 0.0233836 0.215041
14874 3 0.415901 0.0534107 0.246144
14833 2 0.474757 0.0151746 0.203145
14838 5 0.491743 0.0239918 0.195459
14941 7 0.408263 0.102273 0.218635
12366 6 0.469949 0.1093 0.234591
12408 7 0.466019 0.0962227 0.238946
14951 6 0.403073 0.123409 0.243402
12407 7 0.463979 0.120364 0.238685
14905 7 0.405547 0.118481 0.235832
14844 7 0.407452 0.0044268 0.218364
25512 9 0.00553056 0.175025 0.240097
25382 7 0.00817992 0.240848 0.238093
25310 7 0.0468453 0.12287 0.241276
25484 9 0.0835852 0.133154 0.216975
22757 7 0.119781 0.177379 0.241159
25267 5 0.0916739 0.208882 0.194979
25265 5 0.0939831 0.14662 0.193327
25303 3 0.0172482 0.177069 0.246036
25260 2 0.0764501 0.140541 0.200962
25264 5 0.0542288 0.150623 0.198118
25332 1 0.0218699 0.240261 0.196567
25276 1 0.0295086 0.179646 0.197034
25342 5 0.0524727 0.207159 0.201095
25337 4 0.0751732 0.241746 0.202528
25261 2 0.0754365 0.216804 0.203329
25266 3 0.0831723 0.210596 0.214745
25262 3 0.0825949 0.146729 0.21282
25485 9 0.0952037 0.200865 0.214717
22720 7 0.104969 0.168831 0.217572
25377 6 0.0193141 0.182983 0.216363
25507 7 0.0666491 0.189539 0.224869
25518 7 0.0647189 0.162103 0.224632
25314 6 0.0648847 0.175518 0.229763
25297 8 0.0482135 0.175555 0.242725
22830 7 0.0627564 0.233182 0.227936
22751 3 0.115421 0.244433 0.245618
22756 6 0.116414 0.179032 0.215653
22758 7 0.0927805 0.18001 0.24199
22718 6 0.106369 0.175136 0.245641
25348 7 0.00747809 0.172929 0.215805
25347 7 0.0132743 0.194354 0.220614
25345 7 0.00142927 0.22831 0.21663
22706 1 0.121666 0.180192 0.194927
25378 6 0.0127087 0.241245 0.216568
22825 6 0.117132 0.244366 0.217613
22760 7 0.111327 0.140792 0.244281
22795 7 0.103889 0.236441 0.218977
14957 7 0.414582 0.175801 0.235482
22791 6 0.0651757 0.24555 0.232732
22829 7 0.0630192 0.24012 0.239782
22724 1 0.128222 0.242293 0.19751
17468 5 0.392809 0.14326 0.196181
22954 7 0.178107 0.136115 0.233101
20099 7 0.20971 0.111781 0.219228
22796 7 0.127314 0.238339 0.222669
22719 7 0.126716 0.179134 0.221957
20167 7 0.204593 0.22559 0.216085
22646 5 0.194036 0.149011 0.191153
22713 5 0.192782 0.211055 0.19448
20103 1 0.226668 0.179293 0.194408
22716 5 0.151882 0.143589 0.192599
20154 1 0.222257 0.24128 0.195334
22722 7 0.152854 0.165041 0.238435
22645 4 0.172328 0.138319 0.207374
22712 5 0.152053 0.212307 0.199601
22639 2 0.173187 0.153503 0.197586
22708 2 0.174271 0.202677 0.201699
22711 4 0.170553 0.178082 0.201016
22710 3 0.18117 0.207077 0.213876
22932 9 0.183939 0.192269 0.217297
20204 6 0.220373 0.231345 0.215322
20092 3 0.232594 0.179251 0.213518
22721 7 0.151251 0.188766 0.239924
20406 9 0.219804 0.182249 0.21857
22745 8 0.146327 0.240437 0.243028
20166 6 0.187141 0.169205 0.224216
20206 7 0.17343 0.168356 0.228715
22755 6 0.146217 0.177723 0.235131
20205 7 0.183073 0.161034 0.217948
22762 6 0.158237 0.237452 0.228752
20169 7 0.20218 0.17778 0.236636
20203 6 0.209761 0.177598 0.243198
20170 7 0.224088 0.169439 0.241527
22966 7 0.15732 0.222934 0.224401
20168 7 0.226262 0.227575 0.222931
17860 7 0.361724 0.00753452 0.225455
20046 7 0.234194 0.00715681 0.219438
17545 6 0.312216 0.238179 0.243537
17548 7 0.288942 0.128553 0.222889
17508 6 0.32671 0.130363 0.216064
17472 7 0.339183 0.140551 0.215416
20090 5 0.251213 0.141578 0.193901
17504 3 0.365284 0.15047 0.246472
17617 7 0.279257 0.222325 0.222351
17582 7 0.320982 0.124135 0.237041
17581 7 0.299935 0.234916 0.238504
20367 9 0.268774 0.137196 0.24127
20164 5 0.253528 0.207082 0.196057
17651 6 0.279679 0.232688 0.228188
20368 9 0.266205 0.216218 0.242411
20091 5 0.294244 0.147831 0.193485
20094 5 0.294391 0.209972 0.19219
17531 1 0.322389 0.177856 0.192942
17551 1 0.329596 0.24118 0.195819
17538 5 0.350873 0.200049 0.19296
17543 5 0.352652 0.146529 0.199633
20085 2 0.273826 0.14239 0.19965
20086 8 0.262401 0.180304 0.21741
20087 2 0.275494 0.215678 0.200469
20159 4 0.27802 0.240318 0.202456
20088 5 0.269707 0.159898 0.208117
20093 4 0.278641 0.203482 0.211375
17547 7 0.3056 0.190617 0.214057
17540 3 0.335455 0.245648 0.214145
17579 6 0.3193 0.17995 0.214133
17546 7 0.314659 0.16528 0.215135
20136 6 0.2799 0.184796 0.230495
20413 7 0.279902 0.200118 0.234291
20402 7 0.272042 0.176352 0.237572
17534 8 0.365605 0.240731 0.216265
17814 9 0.361283 0.162026 0.240907
20127 3 0.263162 0.207208 0.248284
14996 7 0.354601 0.193958 0.236385
20123 3 0.262807 0.148988 0.245562
17571 3 0.356988 0.218496 0.246899
17815 9 0.356462 0.233727 0.246774
17536 5 0.373085 0.220189 0.206441
14952 3 0.464738 0.218814 0.247217
15026 6 0.358642 0.182093 0.230709
14997 7 0.346389 0.181713 0.226044
17827 9 0.372007 0.157584 0.220405
17533 2 0.374248 0.201508 0.19785
17461 2 0.375143 0.152865 0.20357
17580 7 0.323467 0.22761 0.241296
15261 9 0.45676 0.154012 0.241322
14947 3 0.469107 0.151336 0.246697
17584 6 0.385285 0.235765 0.228733
14909 2 0.478354 0.213102 0.2011
12399 6 0.498784 0.187818 0.244608
14991 5 0.45425 0.210127 0.198174
15275 9 0.494021 0.198859 0.214326
14994 7 0.428272 0.225924 0.215658
14914 6 0.415052 0.1174 0.217654
14942 7 0.402019 0.126951 0.218603
12353 7 0.488671 0.200104 0.243056
15262 9 0.462172 0.231976 0.243103
15027 6 0.425917 0.241423 0.214855
17861 7 0.381422 0.220112 0.232698
17467 3 0.377155 0.145852 0.215555
14985 4 0.481118 0.238246 0.202647
14920 7 0.444421 0.200812 0.212054
14912 5 0.452066 0.152403 0.198052
12352 7 0.489075 0.175078 0.243642
14908 2 0.473899 0.142074 0.201373
14916 5 0.49222 0.203926 0.192153
14910 3 0.481903 0.15005 0.21233
17850 7 0.382446 0.245512 0.235584
14958 7 0.393413 0.185213 0.238592
12329 7 0.434194 0.146583 0.229004
15274 9 0.478516 0.165336 0.21367
9739 6 0.467091 0.251688 0.228996
14995 7 0.410906 0.243582 0.218759
12406 7 0.491788 0.248414 0.239182
14979 1 0.422927 0.237653 0.19356
14915 3 0.48054 0.196764 0.210731
14956 6 0.429901 0.196478 0.214976
14904 7 0.392107 0.134623 0.242175
12291 6 0.442813 0.159574 0.22965
9776 7 0.451883 0.24828 0.226027
14919 6 0.407166 0.182954 0.241555
17539 5 0.392018 0.205341 0.189454
14925 1 0.426335 0.177734 0.19632
14826 6 0.499956 0.0217668 0.155174
17618 7 0.277406 0.246623 0.224612
22955 7 0.169199 0.24666 0.22436
22960 9 0.103949 0.241896 0.239271
20045 7 0.210371 0.00123231 0.215851
25304 4 0.055784 0.200675 0.249755
25178 3 0.0246166 0.0538246 0.304151
25245 3 0.019951 0.116949 0.302417
25251 5 0.0131012 0.0531713 0.283724
25246 4 0.0310172 0.0852236 0.291157
25243 2 0.0301719 0.109883 0.291175
25224 1 0.0838756 0.0861827 0.288785
25179 5 0.0541784 0.0532526 0.289727
25173 2 0.0305427 0.0599592 0.291989
25170 1 0.0807425 0.0246318 0.290066
25232 5 0.0790053 0.0850148 0.268233
25230 5 0.0763358 0.0259495 0.269778
22671 1 0.108294 0.0546886 0.269946
25171 1 0.0113267 0.0557774 0.262003
25229 5 0.0373508 0.0253526 0.261958
25306 5 0.0365299 0.0840612 0.261062
25226 2 0.0598346 0.092302 0.259504
25225 2 0.0613199 0.0170601 0.260444
25496 9 0.010159 0.0461033 0.303846
25288 6 0.0830631 0.0827475 0.31012
22619 1 0.111381 0.119114 0.266477
25300 4 0.0571195 0.117217 0.259965
25248 5 0.0535887 0.118436 0.290256
22699 5 0.113988 0.11586 0.287385
22624 5 0.114875 0.0544907 0.288783
25247 5 0.0116226 0.113869 0.282652
25218 6 0.0748158 0.0237578 0.310039
25497 9 0.0119236 0.104764 0.305646
25294 1 0.00431633 0.114786 0.264155
25257 7 0.0975297 0.0771647 0.311796
25495 9 0.0377342 0.00293795 0.308051
25184 7 0.067558 0.0380233 0.310453
22679 3 0.16228 0.138594 0.250181
22622 3 0.125941 0.0630963 0.307236
22626 3 0.125855 0.114436 0.306617
22944 9 0.121049 0.100143 0.306023
22623 4 0.127761 0.0228237 0.300191
22681 5 0.137727 0.0210225 0.267379
22620 2 0.131885 0.0486872 0.29759
19999 4 0.22365 0.0447226 0.302591
19993 2 0.229779 0.0620074 0.294058
20068 2 0.231353 0.111891 0.296388
20071 4 0.225693 0.0866082 0.297649
22625 5 0.154963 0.0550644 0.293658
22627 5 0.155334 0.117644 0.291594
22618 1 0.179101 0.0874381 0.2902
20076 5 0.213741 0.0567448 0.285082
22600 1 0.185622 0.0245037 0.29131
22609 5 0.178044 0.0278183 0.273437
22678 5 0.175335 0.0877026 0.270766
19990 1 0.211174 0.0571944 0.26631
22677 5 0.135432 0.0909933 0.266171
20129 5 0.236531 0.093696 0.265702
20053 5 0.234424 0.025194 0.263313
22602 2 0.160684 0.0308358 0.264168
22673 2 0.156571 0.0804703 0.262535
22676 4 0.157029 0.0552737 0.262601
20119 1 0.206684 0.119084 0.268174
20072 5 0.212495 0.12008 0.289517
22665 6 0.18676 0.082805 0.309985
19992 8 0.218462 0.0223143 0.311389
19998 3 0.187858 0.0244666 0.310881
22608 3 0.170492 0.018962 0.253946
22675 3 0.160667 0.0925349 0.251959
20070 3 0.232114 0.125556 0.307304
22943 9 0.126481 0.0558653 0.31405
22621 2 0.132132 0.123813 0.295112
22919 9 0.154949 0.107442 0.252
22633 7 0.186227 0.0673596 0.311634
19994 5 0.222851 0.00034611 0.302124
20391 9 0.231968 0.114957 0.313074
20000 5 0.253644 0.0575723 0.289821
17448 5 0.355563 0.117824 0.289606
17440 8 0.318442 0.0892807 0.309672
17446 3 0.288067 0.0920696 0.308687
17442 5 0.320993 0.0677991 0.300235
17447 4 0.326227 0.111078 0.301096
17443 4 0.329329 0.0265812 0.295133
17439 2 0.328898 0.0506845 0.292121
20048 1 0.285083 0.0885117 0.289905
19989 1 0.276319 0.0256817 0.287876
17445 5 0.351599 0.0602071 0.288687
17444 5 0.311505 0.0529265 0.2839
20057 5 0.276774 0.089281 0.270081
17495 1 0.304912 0.056951 0.267088
17506 5 0.335743 0.02961 0.264417
20054 5 0.271254 0.0268967 0.268782
17438 1 0.31372 0.119926 0.264944
17501 5 0.336036 0.0891531 0.26207
17421 2 0.35833 0.0322374 0.259656
20050 2 0.259852 0.0944905 0.261168
20049 2 0.256687 0.0189149 0.259603
17497 2 0.357714 0.0821521 0.256792
20040 6 0.281416 0.0291665 0.307025
17500 4 0.359433 0.0565034 0.255866
20073 5 0.254749 0.115112 0.291684
20124 4 0.264809 0.118524 0.257955
17427 4 0.357671 0.0145831 0.25105
20056 3 0.25981 0.0791363 0.251604
20365 9 0.253717 0.0484801 0.251397
14624 9 0.498633 0.192433 0.421405
17369 2 0.329703 0.000792296 0.29489
20004 7 0.292301 0.0393687 0.310442
17524 5 0.3164 0.123211 0.282778
17441 2 0.332002 0.126677 0.292118
17455 7 0.33595 0.0275736 0.313754
17502 5 0.374485 0.0916089 0.264959
17428 5 0.375304 0.0265186 0.268479
17437 1 0.378113 0.0901949 0.285328
14822 3 0.426942 0.0526962 0.306073
14891 4 0.42593 0.0886808 0.295576
14817 2 0.428728 0.0631305 0.294394
14887 2 0.429154 0.112157 0.29123
14823 5 0.451685 0.0583089 0.289797
17418 1 0.381548 0.0260725 0.286943
14893 5 0.453295 0.113061 0.287389
14897 5 0.413108 0.0554854 0.285442
14892 5 0.410999 0.117048 0.282982
14866 1 0.483257 0.0866148 0.287082
14814 1 0.476367 0.0261999 0.29017
14873 5 0.472814 0.0222537 0.270198
14876 5 0.475956 0.0847895 0.26813
14815 1 0.409256 0.0572208 0.265213
14943 1 0.406875 0.120527 0.264344
14954 5 0.43525 0.0889645 0.26413
17412 6 0.392138 0.0201909 0.306577
14869 2 0.458819 0.0931471 0.260227
14872 5 0.431032 0.0147914 0.266774
14867 2 0.454695 0.015196 0.261955
14948 4 0.459599 0.11782 0.256328
14860 6 0.491756 0.0865217 0.308205
17380 7 0.402175 0.00806098 0.307525
14870 5 0.455298 0.0316857 0.252933
15286 9 0.428445 0.0642454 0.31125
17379 7 0.402639 0.0319924 0.308926
14875 4 0.457977 0.0767496 0.251126
25299 5 0.0543267 0.155346 0.25255
25255 7 0.105127 0.137806 0.309239
25296 2 0.0539009 0.141926 0.262686
25241 1 0.0788454 0.148639 0.289725
25249 3 0.0216007 0.177743 0.303468
25360 6 0.0810499 0.216085 0.307374
25320 4 0.0300843 0.211411 0.293843
25317 2 0.0292943 0.236147 0.293103
25295 1 0.0817342 0.211858 0.285922
25250 5 0.0530626 0.176575 0.290334
25244 2 0.0294085 0.185893 0.292254
25325 5 0.012214 0.178113 0.284208
25302 5 0.0730379 0.151054 0.269136
25305 5 0.0759347 0.210621 0.266461
22742 1 0.104017 0.179614 0.266509
25301 5 0.0297281 0.148151 0.265386
25242 1 0.00551596 0.181348 0.264838
25376 5 0.0330665 0.215609 0.264277
25298 2 0.0563751 0.217195 0.25895
25289 6 0.0918763 0.148232 0.30984
25498 9 0.02491 0.189796 0.308654
25371 4 0.0593255 0.241614 0.255914
22690 1 0.109965 0.242248 0.264029
22695 5 0.112659 0.18081 0.285633
22773 5 0.11373 0.242525 0.283653
25499 9 0.0285749 0.23322 0.310114
25366 1 0.00356159 0.24231 0.265775
25331 7 0.0927405 0.226637 0.307039
22697 3 0.118743 0.243241 0.302724
25321 5 0.00936394 0.244165 0.287388
14607 9 0.416089 -0.00158921 0.335317
25322 5 0.0515788 0.242987 0.287525
25319 3 0.0308192 0.245376 0.305082
25330 7 0.0685508 0.225479 0.30926
22945 9 0.116772 0.173811 0.30984
22693 3 0.12741 0.182384 0.305727
22694 4 0.127348 0.149342 0.295537
22691 2 0.130407 0.173729 0.294064
22748 4 0.159593 0.179428 0.25693
22674 2 0.158395 0.154029 0.259721
22754 5 0.136571 0.149198 0.264505
20202 5 0.233611 0.211571 0.261626
22672 1 0.184662 0.150847 0.288746
20142 4 0.236098 0.212994 0.290289
20147 5 0.217248 0.17927 0.281919
22696 5 0.154857 0.179169 0.291766
20074 3 0.220239 0.182832 0.301531
20069 2 0.233632 0.187838 0.290709
22689 1 0.179758 0.210989 0.287919
20392 9 0.227775 0.192339 0.307146
20139 2 0.23303 0.237577 0.292438
20067 1 0.213277 0.178593 0.263738
22680 5 0.17744 0.150103 0.267878
22750 5 0.174125 0.211521 0.269308
22749 5 0.134354 0.207503 0.26569
20125 5 0.237168 0.148691 0.261254
22744 2 0.157345 0.203681 0.26132
22737 6 0.177666 0.203128 0.308181
22736 6 0.190295 0.156452 0.309058
22698 5 0.152713 0.240523 0.290917
20190 1 0.204563 0.244426 0.265431
20143 5 0.212868 0.243339 0.285249
20393 9 0.227447 0.228208 0.308536
20141 3 0.226328 0.241796 0.304415
22705 7 0.194616 0.171527 0.308272
22747 5 0.152522 0.219324 0.252026
22702 7 0.162903 0.197893 0.308372
22704 7 0.205028 0.14853 0.308753
20075 5 0.256036 0.177237 0.290634
20082 7 0.265285 0.16661 0.303574
20144 5 0.254869 0.249786 0.290801
17572 4 0.361811 0.183851 0.257979
20126 5 0.277352 0.153213 0.266263
20066 1 0.280359 0.148772 0.287471
17516 2 0.332771 0.176586 0.293179
17518 3 0.332003 0.187045 0.305207
20114 6 0.288585 0.214889 0.307894
17519 4 0.33235 0.151346 0.295391
17521 5 0.355428 0.18181 0.288343
20120 1 0.284613 0.214745 0.286613
17520 5 0.31234 0.184747 0.287751
17595 5 0.313242 0.241953 0.284918
17567 1 0.305092 0.18184 0.266221
20128 5 0.274701 0.21172 0.266665
17577 5 0.336399 0.153258 0.26168
17573 5 0.335646 0.215372 0.262887
17498 2 0.359284 0.158825 0.257784
20121 2 0.261313 0.143621 0.257723
17569 2 0.357999 0.208741 0.258585
20122 2 0.257041 0.218358 0.258714
20196 4 0.257897 0.244169 0.25742
20113 6 0.270672 0.153721 0.307346
17523 5 0.355864 0.244414 0.288584
17515 1 0.310891 0.244125 0.263522
17522 3 0.325412 0.242486 0.30373
17839 9 0.317759 0.193415 0.306077
20079 7 0.298519 0.226951 0.305943
20081 7 0.257619 0.144938 0.308974
17840 9 0.334618 0.231063 0.306558
17530 7 0.362098 0.203057 0.305123
15305 9 0.375027 0.154997 0.311377
20080 7 0.274822 0.221706 0.310107
17561 6 0.376593 0.209426 0.306874
17505 5 0.376755 0.150745 0.265859
17574 5 0.377335 0.217483 0.265207
17514 1 0.3813 0.213201 0.286136
14890 5 0.425584 0.129495 0.300187
14966 3 0.424777 0.245462 0.30454
15020 4 0.460132 0.246643 0.261329
14945 2 0.458505 0.143333 0.257295
14886 1 0.411279 0.182932 0.263054
14894 3 0.387619 0.151979 0.305766
14972 5 0.414708 0.184978 0.279691
14896 5 0.455701 0.182303 0.286022
14888 8 0.417553 0.153573 0.307682
12342 3 0.485649 0.210812 0.307034
14895 4 0.423797 0.173099 0.297247
14964 2 0.431559 0.239178 0.292598
14967 4 0.43041 0.214003 0.2924
14889 2 0.43191 0.188786 0.289
17496 1 0.384731 0.151865 0.286206
14944 1 0.486276 0.213145 0.287495
14885 1 0.479134 0.150436 0.285306
14953 5 0.478886 0.213997 0.265963
14936 6 0.485814 0.160602 0.305335
14950 5 0.474182 0.14773 0.266665
15025 5 0.436173 0.212162 0.261269
14949 5 0.435358 0.151982 0.259032
14946 2 0.459568 0.221844 0.259226
15015 1 0.407327 0.245936 0.263713
14969 5 0.455148 0.247396 0.291726
14968 5 0.414477 0.247512 0.28447
14901 7 0.483994 0.176987 0.307806
12753 9 0.473886 0.209597 0.312783
25183 7 0.0791017 0.0219884 0.317663
25256 7 0.0715639 0.0750734 0.314109
24544 6 0.0890195 0.0326189 0.336443
24654 7 0.106006 0.0901406 0.33349
24655 7 0.0840787 0.0934307 0.326915
24614 6 0.0892426 0.0901387 0.334152
24820 9 0.0395678 0.0483792 0.335175
24550 1 0.0888282 0.0863513 0.355867
24571 2 0.0359628 0.0572751 0.35138
24576 3 0.0321786 0.0415951 0.341271
24577 5 0.0599077 0.0512874 0.354775
24639 2 0.0340791 0.107064 0.349827
24643 4 0.0321511 0.0817567 0.349112
24644 5 0.0192342 0.114515 0.359661
24645 5 0.057589 0.114956 0.351792
24649 5 0.0195244 0.0517274 0.360228
24568 1 0.0839861 0.0228859 0.35644
22022 5 0.118339 0.0583238 0.357312
22097 5 0.117883 0.116129 0.355421
24582 7 0.0822633 0.0447061 0.332413
24581 7 0.103605 0.03841 0.337062
25186 7 0.0448173 0.0819789 0.321894
25217 6 0.049201 0.0671809 0.322058
25185 7 0.0396469 0.0621333 0.316423
24819 9 0.0295205 0.0112285 0.343208
17160 9 0.334886 0.00382974 0.333212
1291 7 0.00242324 0.135475 0.479564
22267 9 0.138677 0.0701743 0.337435
22268 9 0.128592 0.117628 0.331565
22634 7 0.189593 0.0892305 0.317334
20409 9 0.178494 0.0330355 0.316589
22024 3 0.133813 0.108306 0.337344
22032 7 0.205884 0.0403965 0.331485
22020 3 0.134667 0.055346 0.338352
22021 4 0.133807 0.0241463 0.352411
20065 6 0.241493 0.0223596 0.322623
22631 7 0.203195 0.104241 0.33387
22632 7 0.178578 0.104009 0.330613
19714 9 0.230121 0.0806186 0.336048
22666 6 0.190182 0.0938657 0.333546
19468 3 0.233175 0.114677 0.335657
19398 3 0.232192 0.0644823 0.337104
19466 2 0.239248 0.112926 0.347933
19469 4 0.238046 0.0881845 0.351625
19393 2 0.237984 0.0626509 0.349635
19474 5 0.21977 0.0527259 0.355988
22016 1 0.186296 0.0877368 0.353988
22018 2 0.136678 0.0490194 0.350565
22023 5 0.159735 0.0562925 0.354313
22025 5 0.159366 0.117591 0.352459
21925 1 0.187989 0.0245866 0.356146
21991 6 0.200411 0.0290388 0.336922