ITEM: TIMESTEP
170000
ITEM: NUMBER OF ATOMS
25520
ITEM: BOX BOUNDS pp pp pp
-3.8849477935863602e-01 6.0087038369358027e+01
-1.9441310646242438e+00 5.9114416338626107e+01
-1.2643467892205667e+01 1.1191920029820952e+02
ITEM: ATOMS id type xs ys zs
25182 6 0.0816774 0.0313594 0.154857
25293 7 0.116891 0.075096 0.149173
25292 7 0.118477 0.0995264 0.152167
25252 6 0.107923 0.086893 0.152409
25214 3 0.0353556 0.0470058 0.159858
25287 5 0.0310664 0.0567397 0.17885
25283 5 0.068931 0.11645 0.172529
25282 5 0.027478 0.11965 0.178308
25281 4 0.0394809 0.0875774 0.166777
25277 2 0.0435572 0.112749 0.168894
25215 5 0.070906 0.0589526 0.170655
25209 2 0.0458337 0.0624756 0.168999
25188 1 0.100355 0.0867083 0.172388
25458 9 0.0460071 0.0387697 0.155939
25206 1 0.0962196 0.0242573 0.173916
25220 7 0.0745431 0.0434756 0.159997
25219 7 0.0789118 0.0359753 0.14784
2433 1 0.00186849 0.0238882 0.176683
25457 9 0.055458 0.00634493 0.156263
22735 5 0.130518 0.116468 0.172151
22660 5 0.130577 0.052745 0.173137
22905 9 0.147825 0.0461876 0.147934
22662 3 0.140687 0.118435 0.151311
22658 3 0.141013 0.0545712 0.153259
22656 2 0.149121 0.0480647 0.165131
20108 5 0.227183 0.121263 0.170257
20112 5 0.230638 0.0582809 0.175817
22663 5 0.169393 0.117963 0.165871
22654 1 0.19537 0.0883962 0.171187
22661 5 0.171597 0.0556648 0.169192
22669 7 0.210909 0.0318002 0.150881
22659 4 0.148434 0.0221107 0.166008
22563 1 0.199435 0.0250062 0.173516
22629 6 0.201414 0.0200473 0.152948
22670 7 0.213249 0.00979987 0.155543
20036 3 0.235346 0.0477084 0.157501
20031 2 0.246341 0.0625028 0.16631
20107 4 0.245783 0.0877615 0.163634
20104 2 0.245767 0.11235 0.163377
20352 9 0.245253 0.0455497 0.151696
20118 7 0.3184 0.0954843 0.149407
20117 7 0.299174 0.084071 0.14448
20077 6 0.307473 0.0840407 0.151329
17480 3 0.343229 0.0542438 0.154218
17799 9 0.331654 0.0648588 0.154207
17484 3 0.342923 0.114141 0.15146
17478 2 0.348331 0.0473546 0.166157
17485 5 0.369181 0.118151 0.166925
17483 5 0.371283 0.0565888 0.168889
17560 5 0.326898 0.118968 0.170147
20109 5 0.2688 0.1215 0.167055
17482 5 0.329065 0.0572476 0.172779
20037 5 0.269114 0.0545729 0.16957
20011 1 0.300121 0.0867636 0.170983
20028 1 0.29379 0.0257991 0.171555
17481 4 0.347728 0.0221708 0.168409
20003 6 0.303898 0.021962 0.152121
17413 7 0.357865 0.037844 0.141746
17378 6 0.360796 0.0229085 0.139583
17414 7 0.357338 0.0135109 0.145488
20041 7 0.315949 0.0331587 0.151379
20042 7 0.312031 0.00872311 0.151183
17800 9 0.342434 0.125622 0.145865
25381 7 0.00775684 0.245835 0.234407
17490 7 0.372927 0.0929479 0.149777
17489 7 0.375282 0.0687998 0.152861
17451 6 0.384124 0.0812671 0.150238
14928 3 0.448751 0.11944 0.153928
14856 3 0.435153 0.045189 0.158376
15246 9 0.441909 0.030687 0.157709
14929 4 0.442642 0.0847603 0.165011
14926 2 0.449829 0.108715 0.165278
14851 2 0.44697 0.0589823 0.167028
14931 5 0.474318 0.110217 0.168722
14857 5 0.472039 0.0547464 0.167369
17476 1 0.395067 0.0899264 0.170091
14934 5 0.433902 0.0536954 0.176901
14930 5 0.433975 0.120109 0.172635
17384 1 0.399079 0.0230518 0.172722
14848 1 0.495373 0.0212672 0.171155
17450 6 0.398325 0.0218867 0.152657
17491 7 0.409462 0.0341179 0.15189
17492 7 0.389403 0.023626 0.145942
14826 6 0.497822 0.0136965 0.150644
14862 7 0.483657 0.0093313 0.147789
15245 9 0.427619 -0.000462619 0.153819
25280 5 0.0379507 0.13008 0.160031
25291 7 0.10795 0.150395 0.14752
25290 7 0.0856276 0.141855 0.147687
2033 7 0.0500108 0.172679 0.135694
1995 6 0.0429969 0.156927 0.137714
25253 6 0.0957315 0.1487 0.152822
2032 7 0.0326359 0.153891 0.130902
25275 1 0.0932487 0.149079 0.17324
25278 8 0.0312055 0.153166 0.151959
22957 9 0.0881585 0.211549 0.148675
22732 3 0.101787 0.218036 0.153072
25353 3 0.0411481 0.248496 0.155734
25285 4 0.040327 0.173787 0.160596
25359 5 0.0295664 0.183653 0.17822
25356 5 0.0687015 0.244513 0.171473
25354 4 0.0436105 0.211988 0.165874
25351 2 0.0461194 0.238094 0.167021
25286 5 0.0706679 0.184619 0.171804
25279 2 0.0464102 0.188442 0.169626
25259 1 0.101461 0.213725 0.172987
25355 5 0.028366 0.247911 0.173989
25433 7 0.0505082 0.222221 0.139867
25394 6 0.0540144 0.208835 0.142879
25432 7 0.0530927 0.211443 0.150421
22960 9 0.107169 0.242795 0.238155
2104 7 0.0150001 0.211238 0.152207
14912 5 0.45436 0.153319 0.195928
25284 3 0.00106537 0.15262 0.154601
22657 2 0.145658 0.125425 0.163123
20106 3 0.240303 0.120536 0.151377
1927 6 0.140004 0.220015 0.136675
1962 7 0.152935 0.233737 0.136833
22668 7 0.150809 0.154678 0.137558
22630 6 0.135366 0.15522 0.139374
1963 7 0.146639 0.20783 0.131446
22726 8 0.130361 0.214252 0.151178
22906 9 0.135079 0.131733 0.147149
20353 9 0.228961 0.131718 0.151692
22730 5 0.127517 0.177143 0.176034
22740 7 0.194107 0.151742 0.143417
22807 5 0.129008 0.246861 0.17866
22667 7 0.13755 0.165004 0.145993
22700 6 0.197664 0.160459 0.149649
22636 1 0.198222 0.14913 0.169712
22729 4 0.147161 0.150669 0.163614
22733 4 0.137356 0.236723 0.160207
20188 7 0.197504 0.20556 0.146797
20189 7 0.209113 0.223668 0.152028
22741 7 0.211838 0.168572 0.147306
20148 6 0.195111 0.216249 0.152418
22728 5 0.138971 0.188836 0.157815
20110 3 0.238575 0.179541 0.15077
20177 4 0.238239 0.213595 0.16182
20105 2 0.24328 0.188398 0.162531
20173 2 0.242957 0.238199 0.164495
22725 2 0.145872 0.174441 0.167328
20178 5 0.225292 0.244069 0.173233
20183 5 0.226538 0.178571 0.170553
22723 1 0.189145 0.214137 0.17154
22734 5 0.168303 0.24435 0.171886
22731 5 0.167841 0.184185 0.170682
20354 9 0.252136 0.172151 0.148212
17479 2 0.345959 0.123842 0.162592
17555 4 0.344482 0.14912 0.160233
20102 1 0.293517 0.151388 0.167459
17802 9 0.337655 0.241756 0.148754
17554 3 0.345832 0.185762 0.150734
17801 9 0.341649 0.201856 0.151491
17558 3 0.343378 0.233443 0.154774
17552 2 0.348603 0.174047 0.161491
17557 5 0.372201 0.178668 0.164135
17559 5 0.371191 0.244917 0.168943
17556 5 0.328406 0.179305 0.169034
20179 5 0.267876 0.241716 0.166759
20111 5 0.267812 0.184243 0.165081
20084 1 0.299151 0.210349 0.169299
17631 5 0.327969 0.242693 0.172402
17553 2 0.345818 0.248646 0.164385
20094 5 0.292618 0.213153 0.189284
14974 6 0.498601 0.196795 0.150276
17564 7 0.375511 0.19808 0.148367
15247 9 0.433649 0.124383 0.152117
15012 7 0.491375 0.200746 0.143892
17563 7 0.375911 0.222378 0.147372
14940 7 0.479385 0.133955 0.151452
14898 6 0.488766 0.146229 0.149274
17566 7 0.40696 0.137676 0.141554
17565 7 0.418897 0.154972 0.148042
17525 6 0.408997 0.141742 0.148792
14939 7 0.477201 0.157407 0.148239
17459 1 0.401138 0.148459 0.169209
14924 1 0.496945 0.148008 0.169261
17526 6 0.386401 0.210791 0.148236
14899 6 0.434526 0.207265 0.136207
14938 7 0.418935 0.204941 0.137607
14937 7 0.440033 0.219587 0.140163
15248 9 0.446787 0.190711 0.146351
15002 3 0.447343 0.242874 0.148772
14932 3 0.448101 0.177863 0.151048
15000 2 0.451543 0.235317 0.161521
15003 4 0.448545 0.210837 0.162365
14927 2 0.449939 0.185847 0.163253
15005 5 0.4748 0.242363 0.16557
14933 5 0.472369 0.178827 0.166182
15004 5 0.431616 0.242549 0.168812
17550 1 0.397079 0.211549 0.168231
15008 5 0.429565 0.177921 0.1696
15011 7 0.487378 0.18595 0.152555
17539 5 0.394647 0.213004 0.188128
25195 5 0.0930666 0.0259555 0.193019
25198 5 0.0958071 0.0887753 0.193051
22613 7 0.119548 0.00812752 0.24249
25471 9 0.0652103 0.0125242 0.244112
25311 7 0.0211782 0.123057 0.238091
25268 5 0.0516377 0.0872215 0.196424
25258 1 0.0206023 0.12016 0.195592
25207 1 0.0272517 0.0548725 0.199107
25191 2 0.0747595 0.0928842 0.200142
25263 4 0.0773845 0.11818 0.201312
25197 4 0.0736004 0.0785786 0.210841
25192 5 0.0764861 0.0348006 0.211465
25196 3 0.0372041 0.052967 0.217548
25190 8 0.0677192 0.0559744 0.22032
25510 9 0.0276444 0.0436314 0.22277
22684 7 0.110254 0.10458 0.224103
25517 7 0.0766121 0.0515724 0.240847
25240 6 0.0837574 0.058934 0.234107
22685 7 0.085263 0.0977909 0.221546
25506 7 0.0847856 0.0757099 0.236803
22649 6 0.0943519 0.109199 0.225598
25194 5 0.0515006 0.0247712 0.198295
25189 2 0.0757631 0.0193722 0.201547
25201 6 0.0181363 0.0606204 0.244172
25231 3 0.0660604 0.0886139 0.247983
25472 9 0.0673267 0.101318 0.243543
25227 3 0.0683761 0.0261058 0.247653
22686 7 0.1077 0.0353502 0.237606
25270 6 0.0537497 0.125929 0.233542
22635 1 0.124719 0.0567584 0.193614
22650 7 0.111439 0.0463421 0.213154
25237 7 0.00461768 0.0602001 0.238334
25269 6 0.00880529 0.121371 0.242794
22760 7 0.111304 0.122085 0.240967
25310 7 0.0671914 0.120494 0.229325
22653 7 0.112898 0.00406997 0.223467
22648 6 0.122637 0.0298103 0.236407
25236 7 0.0301035 0.0665967 0.240168
12407 7 0.489157 0.132791 0.222016
22717 6 0.118189 0.123664 0.247827
25272 7 0.0325983 0.125599 0.222464
15274 9 0.49554 0.159535 0.209937
22683 6 0.12142 0.0581812 0.213405
22572 5 0.192627 0.0258075 0.192962
22643 5 0.194117 0.0879822 0.189555
22687 7 0.132132 0.0400775 0.240442
22651 7 0.12619 0.0598396 0.221252
22931 9 0.176333 0.0197207 0.217342
20083 1 0.224178 0.120757 0.191833
22655 1 0.126334 0.12116 0.192604
20029 1 0.229353 0.0585298 0.19513
22642 5 0.15342 0.0827689 0.19416
22918 9 0.159554 0.0234572 0.246036
20063 7 0.198846 0.0483225 0.227691
22637 2 0.17712 0.0834788 0.198512
22641 4 0.179639 0.0587992 0.203456
22565 2 0.17762 0.0333593 0.202025
22640 5 0.173224 0.100934 0.207307
20024 7 0.238738 0.0510252 0.219406
20060 6 0.232845 0.0633695 0.215317
22638 8 0.163598 0.121274 0.215439
20023 6 0.144667 0.0658645 0.235037
22688 6 0.176371 0.11873 0.229768
20061 7 0.151288 0.0719269 0.241185
20062 7 0.157652 0.0631001 0.230334
20022 6 0.193946 0.0626916 0.229877
20064 7 0.203497 0.0715229 0.225741
22647 5 0.153876 0.0253469 0.199545
20134 7 0.211953 0.060748 0.241776
20096 6 0.222563 0.056572 0.247649
20133 7 0.197084 0.114639 0.245558
22571 3 0.188615 0.0227388 0.211996
20025 7 0.245564 0.0727198 0.213702
20098 7 0.239488 0.117523 0.21595
22965 7 0.180845 0.101682 0.231552
20130 6 0.242383 0.115571 0.23442
22612 6 0.164717 0.00401803 0.227098
14852 3 0.443266 -3.59611e-05 0.155753
17509 7 0.235999 0.0185388 0.225819
17471 6 0.248168 0.0288423 0.226079
20101 7 0.24876 0.103044 0.23862
22577 7 0.14901 0.00411823 0.224637
20097 6 0.208259 0.124096 0.248464
20168 7 0.206335 0.246599 0.216007
22644 3 0.1332 0.122142 0.212156
22954 7 0.165873 0.121757 0.236741
17510 7 0.249389 0.0308273 0.233684
20366 9 0.250957 0.0752189 0.250135
20016 5 0.253174 0.0276437 0.197366
20017 5 0.291757 0.0254883 0.19102
25343 6 0.00384768 0.249639 0.241347
17475 7 0.312577 0.0126963 0.216679
20020 5 0.294819 0.085842 0.191934
17477 1 0.327639 0.123505 0.191228
17458 1 0.320818 0.058588 0.193773
20095 5 0.254265 0.0883508 0.194906
17464 5 0.350596 0.0920628 0.193604
20013 2 0.277384 0.0947016 0.199866
20379 9 0.293112 0.0776119 0.21287
20089 4 0.279235 0.119897 0.199439
20019 3 0.278523 0.0835201 0.210983
20378 9 0.27176 0.0279798 0.216821
17466 6 0.317187 0.0596866 0.213833
17493 7 0.309403 0.046138 0.216282
17494 7 0.325267 0.0709807 0.219417
17473 7 0.329076 0.12086 0.217949
14960 7 0.352239 0.090465 0.21987
17548 7 0.277298 0.113596 0.220464
14918 6 0.338756 0.092187 0.224967
14959 7 0.34604 0.0899793 0.231945
17469 5 0.351639 0.0244916 0.197368
17456 7 0.289095 0.0709261 0.243775
17457 7 0.311842 0.0632351 0.238711
20014 3 0.284471 0.0263803 0.211635
20012 2 0.275614 0.0193231 0.200514
17503 6 0.299792 0.0580755 0.244147
20051 3 0.259685 0.0262289 0.247671
17499 3 0.361058 0.0866138 0.244964
20365 9 0.276087 0.0298339 0.246372
17582 7 0.319948 0.117139 0.238553
14952 3 0.463363 0.207172 0.24538
17386 2 0.374962 0.0339862 0.199652
17463 4 0.371173 0.0591947 0.196976
17460 2 0.372756 0.084087 0.197273
17825 9 0.377833 0.0200362 0.214717
14909 2 0.47753 0.220744 0.197601
17813 9 0.372602 0.0972624 0.24427
17462 3 0.375273 0.0918474 0.209194
17544 6 0.311765 0.124102 0.243698
20100 7 0.254919 0.125207 0.233275
17860 7 0.355339 0.00952098 0.225201
17465 5 0.392236 0.089761 0.189893
14840 5 0.495207 0.0833139 0.192279
17391 3 0.381983 0.0340735 0.211947
14906 1 0.424749 0.119563 0.191707
14838 5 0.491759 0.0219297 0.189753
17392 5 0.393394 0.0278131 0.191989
17826 9 0.39078 0.0942023 0.210958
14849 1 0.42763 0.0580612 0.193807
14875 4 0.458673 0.078325 0.249678
14917 5 0.454694 0.0867682 0.195392
14837 5 0.451702 0.0248732 0.196623
14911 4 0.479455 0.117354 0.198482
14834 2 0.476978 0.0926806 0.199791
14839 3 0.482185 0.0871923 0.211495
14955 6 0.421416 0.0547614 0.214571
15273 9 0.485575 0.101076 0.215752
14922 7 0.4304 0.053414 0.221016
14923 7 0.408395 0.0452701 0.214794
15308 7 0.465308 0.0668454 0.222504
12291 6 0.442421 0.112718 0.233495
14884 6 0.460155 0.0536924 0.227583
15297 7 0.470565 0.0418429 0.224357
12366 6 0.488185 0.119755 0.226236
15303 9 0.405962 0.056997 0.239047
14868 8 0.448921 0.056434 0.24183
14835 3 0.481984 0.0245478 0.210315
14874 3 0.418227 0.0572476 0.244907
14833 2 0.474883 0.017085 0.198739
15272 9 0.488168 0.011544 0.214287
14847 7 0.446827 0.00917479 0.239301
12328 7 0.447903 0.102076 0.238965
14951 6 0.395716 0.120651 0.242975
14942 7 0.426787 0.118192 0.218273
14914 6 0.417013 0.115527 0.21208
14904 7 0.404246 0.117796 0.236162
12408 7 0.474702 0.121292 0.231226
17468 5 0.398122 0.149278 0.192227
25308 6 0.0275587 0.128528 0.215165
20009 7 0.195844 0.00681585 0.245489
25267 5 0.0928086 0.213125 0.193091
25309 7 0.0584758 0.135842 0.239232
25265 5 0.0914296 0.150742 0.193718
22706 1 0.123245 0.182146 0.194368
25271 7 0.0388348 0.140273 0.212322
25348 7 0.00422384 0.185387 0.219755
25484 9 0.0907349 0.131208 0.217019
25347 7 0.0301903 0.191079 0.220551
25512 9 0.00933946 0.176926 0.23994
22829 7 0.0672668 0.226606 0.234411
22791 6 0.0772743 0.23515 0.230583
15275 9 0.471455 0.197016 0.209149
25303 3 0.0208482 0.184296 0.244814
25260 2 0.0760978 0.143031 0.203008
25264 5 0.0527032 0.152224 0.201829
25332 1 0.0197164 0.244139 0.195439
25276 1 0.0267846 0.180817 0.196344
25342 5 0.0499493 0.21457 0.197954
25337 4 0.0756886 0.243126 0.202293
25261 2 0.0741252 0.218157 0.200961
25266 3 0.0798246 0.209663 0.21258
25262 3 0.0883505 0.145868 0.214288
25485 9 0.0781453 0.222339 0.2178
22720 7 0.10976 0.168124 0.215444
25377 6 0.0179156 0.187369 0.215587
25507 7 0.0642294 0.188471 0.220862
25518 7 0.0641505 0.1624 0.224051
25314 6 0.0550325 0.177722 0.225609
25297 8 0.0514455 0.18146 0.241225
22757 7 0.0927792 0.199242 0.244478
22825 6 0.115718 0.242211 0.218874
22758 7 0.116176 0.193454 0.239101
22718 6 0.10725 0.192034 0.245702
22795 7 0.106863 0.229366 0.221257
14992 6 0.415476 0.24696 0.242016
22830 7 0.0696285 0.248948 0.229166
22756 6 0.125134 0.174991 0.214022
22958 9 0.125672 0.138116 0.213188
25378 6 0.0145199 0.244685 0.216879
25304 4 0.0597219 0.206521 0.247852
22747 5 0.157733 0.226058 0.248089
22751 3 0.118077 0.248118 0.244005
20131 6 0.226114 0.122879 0.21248
20132 7 0.22181 0.119092 0.243576
22719 7 0.129908 0.181596 0.221051
22646 5 0.195242 0.150975 0.190943
22713 5 0.191772 0.214836 0.19246
20103 1 0.22789 0.182325 0.191223
22759 7 0.130529 0.135205 0.247858
20099 7 0.216493 0.126142 0.218586
20154 1 0.220197 0.244153 0.191566
22716 5 0.154591 0.145188 0.192114
22724 1 0.126355 0.245669 0.198508
22722 7 0.149502 0.201218 0.237536
22645 4 0.17502 0.145967 0.208379
22712 5 0.151691 0.216156 0.199293
22639 2 0.174512 0.156486 0.197497
22708 2 0.175717 0.207238 0.201307
22711 4 0.172625 0.181434 0.199196
22710 3 0.183224 0.212826 0.212565
22932 9 0.183043 0.19921 0.217538
20167 7 0.215557 0.224374 0.212544
20204 6 0.219546 0.240579 0.212284
20092 3 0.231028 0.184071 0.209863
22721 7 0.147898 0.176913 0.238566
20406 9 0.217935 0.181878 0.215611
22966 7 0.173189 0.232258 0.225125
22745 8 0.149735 0.249789 0.240218
20166 6 0.18618 0.176173 0.22375
20206 7 0.172793 0.1786 0.22803
22755 6 0.143241 0.188568 0.23395
20205 7 0.180219 0.166444 0.217914
22679 3 0.163563 0.147428 0.248857
22762 6 0.161375 0.246063 0.226424
20169 7 0.24968 0.237772 0.222978
22955 7 0.149316 0.239704 0.220573
17508 6 0.323846 0.130214 0.211963
17472 7 0.308339 0.130258 0.213415
17583 7 0.29734 0.123619 0.239567
17578 6 0.28144 0.126381 0.224816
20091 5 0.295745 0.148711 0.188364
20164 5 0.254283 0.211678 0.1906
17584 6 0.37673 0.24102 0.227638
17827 9 0.365895 0.144074 0.213313
20090 5 0.255299 0.14994 0.190536
17538 5 0.353109 0.206012 0.192314
17551 1 0.328247 0.244423 0.192303
17531 1 0.321937 0.182952 0.189034
17549 7 0.280958 0.138757 0.219523
20203 6 0.26378 0.231233 0.224926
20170 7 0.268726 0.227425 0.217772
20368 9 0.265243 0.215946 0.241035
17543 5 0.353581 0.150537 0.193889
17814 9 0.352636 0.145306 0.244217
14991 5 0.4553 0.21174 0.19316
17504 3 0.364603 0.15269 0.247657
20085 2 0.276263 0.143847 0.195721
20086 8 0.260601 0.179197 0.213187
17815 9 0.354739 0.201013 0.24136
20087 2 0.274333 0.218801 0.197106
20159 4 0.273102 0.243492 0.200077
20088 5 0.273707 0.157709 0.20577
20093 4 0.270207 0.202928 0.206369
17547 7 0.320842 0.175871 0.215632
17540 3 0.333473 0.244165 0.210658
17579 6 0.32089 0.185231 0.209425
17534 8 0.364308 0.243119 0.213093
17546 7 0.304551 0.185344 0.208042
20136 6 0.278575 0.177262 0.226491
20413 7 0.271496 0.184603 0.233357
20402 7 0.280142 0.161767 0.229937
20127 3 0.26715 0.20769 0.247733
17571 3 0.357841 0.214982 0.245042
17580 7 0.335561 0.241769 0.242985
17850 7 0.374985 0.226676 0.232204
14916 5 0.495664 0.214377 0.189873
17854 9 0.322115 0.242184 0.216602
14956 6 0.438378 0.176385 0.212324
14979 1 0.424164 0.24274 0.189427
15026 6 0.384772 0.188404 0.22354
17536 5 0.373663 0.221961 0.204719
14957 7 0.42689 0.168804 0.238691
14958 7 0.405782 0.182103 0.235043
14913 5 0.495773 0.14987 0.19079
12353 7 0.491051 0.193609 0.241587
14997 7 0.38815 0.201272 0.219347
14921 7 0.448465 0.164571 0.209277
14941 7 0.406476 0.127722 0.212326
14908 2 0.477231 0.142629 0.198272
14920 7 0.442467 0.175863 0.219661
14910 3 0.482635 0.149982 0.210104
17461 2 0.376039 0.15633 0.198225
17533 2 0.377298 0.206333 0.195791
17467 3 0.380021 0.145119 0.209734
17537 4 0.379915 0.181528 0.19969
15261 9 0.473345 0.164571 0.244625
14996 7 0.38407 0.178136 0.217734
14915 3 0.482618 0.208886 0.208265
15262 9 0.450014 0.199035 0.243285
15031 7 0.407982 0.245082 0.234417
14985 4 0.477954 0.246501 0.199627
14947 3 0.463004 0.15343 0.244149
14925 1 0.429154 0.182881 0.19145
14919 6 0.415494 0.179377 0.24108
15030 7 0.430458 0.247643 0.239317
12329 7 0.445946 0.126398 0.236526
14995 7 0.4418 0.237878 0.209978
14905 7 0.38532 0.133016 0.241529
25299 5 0.0601258 0.159488 0.249648
20367 9 0.264869 0.175012 0.248183
20123 3 0.269925 0.160241 0.24948
20135 7 0.23311 0.04751 0.243938
25178 3 0.028774 0.0634472 0.304551
25245 3 0.0269611 0.117342 0.302988
25251 5 0.0154177 0.0570757 0.28569
25246 4 0.0329116 0.0906612 0.28929
25243 2 0.0329252 0.115986 0.290504
25224 1 0.0867186 0.0897102 0.288568
25179 5 0.0562781 0.0556009 0.290284
25173 2 0.0339952 0.0659256 0.292382
22624 5 0.114466 0.0616311 0.289769
22699 5 0.114688 0.122642 0.286938
25170 1 0.0803537 0.0274659 0.289023
25232 5 0.0806232 0.0865827 0.26717
25230 5 0.0822803 0.0339816 0.266563
22671 1 0.109175 0.059208 0.268173
22619 1 0.114078 0.121186 0.267351
25171 1 0.0124552 0.0601651 0.263694
25229 5 0.0387047 0.0313647 0.26308
25294 1 0.008315 0.122321 0.262896
25306 5 0.0380045 0.0900202 0.262863
25226 2 0.0623016 0.0953057 0.259965
25225 2 0.0618154 0.02352 0.259866
25300 4 0.0649994 0.120571 0.260747
25496 9 0.0411888 0.0647876 0.308899
25288 6 0.0873205 0.0920068 0.308154
25218 6 0.0816439 0.0208072 0.309789
25256 7 0.0968531 0.0793626 0.309748
25497 9 0.0238782 0.102408 0.305289
25257 7 0.0971614 0.104553 0.309678
25174 3 0.0317523 0.00531131 0.306018
25248 5 0.0570966 0.124902 0.289036
25495 9 0.0436133 0.0160342 0.307352
14309 3 0.497384 0.12072 0.4245
22622 3 0.128499 0.0625959 0.308909
22623 4 0.137208 0.0301553 0.296635
22681 5 0.138064 0.0338639 0.26415
22620 2 0.133376 0.0549243 0.29731
19999 4 0.228848 0.0512279 0.305041
19993 2 0.233848 0.0679815 0.296139
20068 2 0.233308 0.117443 0.29598
20071 4 0.235041 0.093109 0.299506
22625 5 0.156277 0.064291 0.293026
22627 5 0.155325 0.12527 0.292816
22618 1 0.179197 0.0934657 0.290052
20076 5 0.215646 0.0658621 0.287135
22600 1 0.18555 0.03099 0.289577
22609 5 0.177695 0.0342023 0.271474
22678 5 0.181341 0.0954948 0.268681
19990 1 0.216058 0.0589627 0.267958
22677 5 0.1407 0.0896705 0.26546
20129 5 0.23804 0.0916915 0.266129
20053 5 0.23732 0.0255987 0.264437
22602 2 0.162915 0.0365703 0.261516
22673 2 0.163949 0.0861413 0.260744
22676 4 0.164783 0.0610379 0.257839
19998 3 0.191732 0.0288671 0.309394
19992 8 0.221769 0.0262788 0.31169
19994 5 0.228526 0.00627031 0.301761
22545 2 0.13435 0.00552166 0.293896
20119 1 0.208982 0.124406 0.26843
22608 3 0.170254 0.0212455 0.251878
14241 6 0.420781 0.00261219 0.395599
16836 7 0.304979 0.0205593 0.397634
22943 9 0.125452 0.0492815 0.313409
20000 5 0.256435 0.0626205 0.291781
17448 5 0.355827 0.120503 0.286215
17440 8 0.322562 0.0930199 0.308851
17446 3 0.292177 0.0895924 0.30818
17442 5 0.328069 0.0710266 0.299998
17447 4 0.325793 0.115134 0.29933
17443 4 0.332564 0.02998 0.294724
17439 2 0.333076 0.0546854 0.29128
20048 1 0.287335 0.0931733 0.288764
19989 1 0.279249 0.0304462 0.288288
17445 5 0.355319 0.0622016 0.286354
17444 5 0.312884 0.0583954 0.283305
20057 5 0.277065 0.0925861 0.269267
17495 1 0.303761 0.0578241 0.263961
17506 5 0.336168 0.0253641 0.266947
20054 5 0.277676 0.0304647 0.266023
17438 1 0.310804 0.121921 0.263149
17501 5 0.333405 0.0892018 0.260989
17421 2 0.356858 0.0326401 0.261178
20050 2 0.259838 0.0986151 0.261338
20049 2 0.259228 0.0183345 0.259741
17497 2 0.356172 0.0821686 0.257178
20040 6 0.287142 0.025503 0.308938
20005 7 0.300054 0.0177876 0.3115
17500 4 0.358327 0.0575193 0.25818
17369 2 0.334048 0.00448574 0.295095
20073 5 0.25625 0.123643 0.291572
17838 9 0.336218 0.00676879 0.311815
20124 4 0.259476 0.124686 0.260079
17524 5 0.31545 0.127761 0.280727
20056 3 0.26368 0.085589 0.250666
19997 5 0.255951 0.00124575 0.288954
17502 5 0.375924 0.0913705 0.263403
17428 5 0.377517 0.0277934 0.268598
17437 1 0.38137 0.0887764 0.284272
14860 6 0.490766 0.0911108 0.308364
15286 9 0.431311 0.042733 0.304053
14822 3 0.425113 0.0559666 0.302124
14891 4 0.432852 0.0909164 0.292673
14817 2 0.433981 0.064727 0.291454
14887 2 0.430855 0.115745 0.289532
14823 5 0.457291 0.0557176 0.289445
17418 1 0.388406 0.0272748 0.286018
14893 5 0.454108 0.122266 0.286067
14897 5 0.417553 0.059907 0.282878
14892 5 0.413022 0.121184 0.281293
14866 1 0.484423 0.0909475 0.287062
14814 1 0.48136 0.0266099 0.286949
14873 5 0.475965 0.0279571 0.266686
14876 5 0.480249 0.0903256 0.266171
14815 1 0.410012 0.0577767 0.262793
14943 1 0.406854 0.119749 0.263008
14954 5 0.43741 0.0902668 0.263615
17412 6 0.386908 0.025579 0.305982
14869 2 0.460449 0.0952176 0.258904
14872 5 0.434768 0.0185278 0.263974
14867 2 0.458331 0.0184451 0.259306
17380 7 0.399296 0.0150989 0.307284
14948 4 0.460759 0.119816 0.255596
14818 3 0.432857 0.000279089 0.304994
1395 7 0.00184677 0.213486 0.330885
25247 5 0.0123889 0.124477 0.284112
25296 2 0.0625649 0.145372 0.260238
25241 1 0.0795836 0.1554 0.28872
25249 3 0.0297557 0.184443 0.303743
25360 6 0.0858541 0.218087 0.305004
25320 4 0.0298948 0.217205 0.290881
25317 2 0.0317843 0.24232 0.29024
25295 1 0.0850072 0.219617 0.284979
25250 5 0.0562708 0.185878 0.288948
25244 2 0.0332776 0.192466 0.291948
22695 5 0.114615 0.189157 0.285395
25325 5 0.0154776 0.183503 0.28442
25302 5 0.0796099 0.155118 0.267858
25305 5 0.0786822 0.214248 0.265328
22742 1 0.108162 0.182731 0.265413
22690 1 0.112418 0.247435 0.26211
25301 5 0.0382972 0.147282 0.263037
25242 1 0.0130551 0.184409 0.263522
25376 5 0.0374993 0.21901 0.261975
25298 2 0.061776 0.222759 0.257607
25289 6 0.0837725 0.157367 0.309288
25254 7 0.0981277 0.163552 0.308158
25366 1 0.00755742 0.245195 0.261682
25331 7 0.0971159 0.207507 0.30694
25498 9 0.0437037 0.180267 0.307116
25371 4 0.0638248 0.247629 0.255279
19408 7 0.205629 0.00647437 0.403213
25330 7 0.0816129 0.224423 0.3124
22945 9 0.135601 0.196058 0.308788
22944 9 0.117784 0.135479 0.311414
1930 7 0.00658644 0.0279946 0.307292
25322 5 0.055709 0.247228 0.287638
1996 7 0.0500141 0.23843 0.311845
20072 5 0.21519 0.119924 0.287767
22693 3 0.122868 0.189757 0.304685
22626 3 0.122003 0.123236 0.307286
20070 3 0.229374 0.131536 0.306361
22621 2 0.130923 0.131198 0.295637
22704 7 0.202905 0.146634 0.3091
22694 4 0.129203 0.156132 0.295127
22691 2 0.13149 0.180466 0.293584
22748 4 0.160421 0.185968 0.256445
22674 2 0.159251 0.161223 0.259624
22754 5 0.139505 0.152366 0.265488
20202 5 0.238188 0.21561 0.260053
22672 1 0.184755 0.15624 0.287215
20142 4 0.230513 0.217867 0.289741
20147 5 0.213566 0.181857 0.285811
22696 5 0.155175 0.188159 0.290149
20074 3 0.226777 0.189635 0.303763
20141 3 0.225954 0.24372 0.303884
20069 2 0.232104 0.193058 0.291661
22689 1 0.179905 0.217141 0.286823
20392 9 0.219799 0.174567 0.30498
20139 2 0.231194 0.24325 0.291487
20067 1 0.212036 0.18753 0.263308
22680 5 0.178874 0.157073 0.267512
22750 5 0.17968 0.218408 0.264569
16931 2 0.392416 0.174362 0.437091
22749 5 0.137675 0.217539 0.263115
20125 5 0.238132 0.160721 0.262377
22744 2 0.159423 0.211481 0.258036
22737 6 0.183755 0.214499 0.307221
22736 6 0.191106 0.157271 0.307204
22703 7 0.193764 0.202855 0.308111
20393 9 0.223716 0.228659 0.306662
22698 5 0.157476 0.24767 0.285891
22702 7 0.195015 0.226794 0.30615
22697 3 0.127257 0.249773 0.300225
17441 2 0.332456 0.129098 0.28974
20082 7 0.305457 0.151542 0.306768
17572 4 0.360601 0.185421 0.259704
20126 5 0.277334 0.155934 0.268198
20075 5 0.255779 0.187766 0.289968
20066 1 0.280116 0.154384 0.288663
17516 2 0.33321 0.178809 0.293805
17518 3 0.329261 0.188231 0.305743
20079 7 0.304712 0.207762 0.30784
20114 6 0.293397 0.219938 0.307975
17519 4 0.335093 0.153511 0.293736
17521 5 0.355952 0.186881 0.290573
20120 1 0.283775 0.218898 0.287221
17520 5 0.313436 0.184853 0.286735
17595 5 0.311243 0.24599 0.285737
17567 1 0.30629 0.184267 0.267101
20128 5 0.27916 0.213125 0.26606
14624 9 0.500672 0.191315 0.421304
17577 5 0.336326 0.152172 0.262252
17573 5 0.334623 0.219084 0.262333
17498 2 0.358688 0.160264 0.259182
20121 2 0.259621 0.149455 0.259564
17569 2 0.356751 0.20979 0.257516
20122 2 0.262161 0.221371 0.257697
20196 4 0.266346 0.246396 0.256376
20113 6 0.289676 0.15076 0.308938
17839 9 0.332763 0.175364 0.310563
17529 7 0.363686 0.233621 0.303917
17530 7 0.364011 0.209984 0.302538
17840 9 0.320689 0.24172 0.304473
17523 5 0.354929 0.245824 0.2854
17561 6 0.374294 0.221454 0.304253
17522 3 0.334409 0.249279 0.302348
1861 9 -3.0621e-05 0.199776 0.425828
14900 7 0.493722 0.140571 0.310148
17505 5 0.376495 0.151844 0.267359
17574 5 0.378036 0.220108 0.262481
17514 1 0.379697 0.215805 0.284527
14890 5 0.423149 0.129437 0.29875
14945 2 0.459164 0.145165 0.256969
14886 1 0.410293 0.183929 0.261552
14894 3 0.387805 0.155856 0.306278
14972 5 0.415495 0.186884 0.281047
14896 5 0.455346 0.183689 0.286588
14888 8 0.418436 0.152687 0.307059
12342 3 0.485523 0.216701 0.30192
14895 4 0.424648 0.175539 0.299115
14964 2 0.433004 0.240895 0.291049
14967 4 0.432276 0.215808 0.293039
14889 2 0.432221 0.190677 0.29009
17496 1 0.385942 0.153871 0.286102
14944 1 0.483565 0.21524 0.283365
14885 1 0.48114 0.151695 0.284558
14953 5 0.476377 0.213396 0.264328
14936 6 0.481744 0.145997 0.305429
14950 5 0.477184 0.152489 0.264831
15015 1 0.40709 0.246604 0.26226
15025 5 0.437007 0.215989 0.259891
14949 5 0.43521 0.152043 0.260532
14946 2 0.460152 0.221037 0.255835
15020 4 0.463649 0.24676 0.253775
12753 9 0.471231 0.215143 0.305964
14820 5 0.417796 -3.57614e-05 0.286131
14968 5 0.414354 0.248733 0.283355
15305 9 0.379376 0.162774 0.312287
25183 7 0.0711547 0.0119845 0.314121
25184 7 0.0927722 0.0227046 0.315453
24544 6 0.0850275 0.0209885 0.337565
24654 7 0.0854465 0.0835562 0.327023
24655 7 0.104103 0.0907542 0.335418
24614 6 0.0876236 0.0888308 0.334506
24820 9 0.0118284 0.0462715 0.341671
24550 1 0.0879945 0.0890596 0.355557
24571 2 0.0322479 0.0620797 0.353055
24576 3 0.0271029 0.0476514 0.34287
24577 5 0.0571951 0.0564592 0.355221
24639 2 0.0324175 0.111936 0.352159
24643 4 0.029218 0.0871831 0.350919
24644 5 0.0161199 0.119574 0.360852
24645 5 0.0566377 0.113537 0.354072
24649 5 0.0177545 0.0570284 0.362949
24568 1 0.0845268 0.0272404 0.357022
22022 5 0.118296 0.0645584 0.356849
22097 5 0.120298 0.120986 0.355291
24582 7 0.0968058 0.0242126 0.332279
24581 7 0.0726236 0.0166727 0.33303
24819 9 0.0294289 0.0136415 0.343434
22665 6 0.125568 0.024796 0.32415
22633 7 0.129119 0.014745 0.330127
22020 3 0.13744 0.0610665 0.338861
20391 9 0.23367 0.123216 0.312961
22634 7 0.132133 0.0369807 0.327581
20409 9 0.180672 0.0304586 0.31618
22267 9 0.136849 0.0764242 0.339107
22024 3 0.130733 0.110471 0.336164
22032 7 0.206388 0.0145525 0.33584
22021 4 0.13369 0.0279317 0.351807
20065 6 0.24354 0.0243126 0.323006
20416 7 0.241631 0.0347342 0.330005
22631 7 0.171789 0.068095 0.337279
22632 7 0.188437 0.0716124 0.328482
19714 9 0.226067 0.0725681 0.336653
22666 6 0.186062 0.0753339 0.33586
19468 3 0.234171 0.11446 0.335305
19398 3 0.230475 0.0578945 0.339399
19466 2 0.236732 0.111958 0.347608
19469 4 0.236275 0.0877859 0.351411
19393 2 0.237541 0.0622609 0.351499
19470 5 0.217395 0.123181 0.352891
19474 5 0.218936 0.054799 0.358945
22016 1 0.18477 0.0897782 0.355933
22018 2 0.137284 0.0529378 0.350944
22023 5 0.159982 0.0589362 0.355914
22025 5 0.159819 0.119427 0.349606
21925 1 0.188807 0.0265304 0.358298
21991 6 0.193833 0.0240145 0.338802
22031 7 0.203225 0.0380371 0.33913
20415 7 0.243468 0.00900738 0.327498
22005 5 0.184898 0.0888488 0.377318
22268 9 0.140994 0.113819 0.330495
22019 2 0.136882 0.124694 0.346055
19715 9 0.246782 0.121717 0.332023
21945 2 0.137377 0.00328572 0.353879
20004 7 0.274848 0.0205251 0.313736
17857 9 0.28359 0.0764782 0.311711
20039 6 0.285142 0.0140436 0.333717
17513 6 0.346222 0.0900195 0.319581
17864 7 0.342422 0.0787405 0.325917
17863 7 0.349545 0.1054 0.323571
19365 6 0.296803 0.0875492 0.333758
16842 3 0.331217 0.0565545 0.336183
19403 7 0.293519 0.0865028 0.326096