ITEM: TIMESTEP
146000
ITEM: NUMBER OF ATOMS
25520
ITEM: BOX BOUNDS pp pp pp
-3.3412303036253571e-01 6.0032666620361333e+01
-1.8892351448930627e+00 5.9059520418893918e+01
-1.2531477310618941e+01 1.1180720971662211e+02
ITEM: ATOMS id type xs ys zs
14861 7 0.491901 0.029773 0.143573
15012 7 0.407982 0.212669 0.1231
14974 6 0.408485 0.22685 0.126347
25182 6 0.0920192 0.0145608 0.14368
25293 7 0.110568 0.0605814 0.144008
25292 7 0.121379 0.0839383 0.144064
25252 6 0.105881 0.0762366 0.144826
25280 5 0.0384176 0.117511 0.15187
25214 3 0.0288099 0.0362296 0.154425
25287 5 0.0281447 0.048872 0.172767
25283 5 0.0684738 0.107102 0.163505
25282 5 0.0264761 0.108614 0.168265
25281 4 0.040922 0.0752993 0.159293
25277 2 0.0438324 0.101558 0.160078
25215 5 0.0665111 0.0427894 0.164998
25209 2 0.0429487 0.0505143 0.162948
25188 1 0.0961626 0.075558 0.163819
25458 9 0.0395209 0.0293277 0.149768
25206 1 0.0918315 0.0132014 0.164195
25219 7 0.0906643 0.0228411 0.137222
25220 7 0.0781593 0.00569554 0.143786
25198 5 0.0903079 0.077769 0.183725
25290 7 0.0749081 0.122404 0.150403
22635 1 0.119931 0.046249 0.185472
22735 5 0.127546 0.108862 0.165425
22660 5 0.127808 0.0504088 0.164646
22906 9 0.140939 0.118054 0.141133
22905 9 0.156851 0.0372106 0.142179
20353 9 0.230137 0.119856 0.145865
22662 3 0.143461 0.10651 0.146461
22658 3 0.143717 0.0414618 0.145703
20104 2 0.245409 0.101295 0.157987
20031 2 0.244935 0.0512136 0.158895
22656 2 0.146101 0.0388447 0.158088
22657 2 0.145985 0.115318 0.158005
20108 5 0.226469 0.107811 0.165653
20112 5 0.226497 0.0448025 0.166628
22663 5 0.169248 0.109342 0.162511
22654 1 0.192032 0.0764046 0.164203
22661 5 0.167662 0.0461488 0.162844
22669 7 0.21404 0.0270291 0.144156
22659 4 0.142073 0.0142198 0.160783
22563 1 0.199394 0.0155097 0.166923
20106 3 0.244796 0.114533 0.147121
20107 4 0.240588 0.0765833 0.1572
22643 5 0.188579 0.0744891 0.184124
22629 6 0.204259 0.01522 0.147435
20036 3 0.241077 0.0420068 0.147357
20352 9 0.249036 0.0494894 0.14197
22572 5 0.189615 0.0105669 0.186886
20083 1 0.218509 0.10678 0.185896
22655 1 0.12485 0.106429 0.185484
22642 5 0.148686 0.0692385 0.18726
20118 7 0.317147 0.0795394 0.143506
17800 9 0.340009 0.109912 0.141845
20117 7 0.300346 0.068225 0.136382
20077 6 0.303695 0.0715086 0.143915
17480 3 0.34177 0.0435702 0.148962
17799 9 0.329445 0.052967 0.147838
17484 3 0.336165 0.101504 0.14846
17478 2 0.347348 0.0390992 0.1608
17479 2 0.344033 0.115764 0.158458
17485 5 0.368124 0.109906 0.160675
17483 5 0.369063 0.0497542 0.163563
17560 5 0.328752 0.110575 0.168139
20109 5 0.267196 0.108772 0.163285
17482 5 0.327846 0.0480268 0.167201
20037 5 0.268657 0.0472805 0.16229
20011 1 0.297963 0.0773102 0.164925
20028 1 0.294341 0.0149902 0.167517
17481 4 0.345569 0.0141664 0.16242
20003 6 0.286197 0.0150223 0.146625
17378 6 0.368028 0.0141929 0.136365
20042 7 0.275828 0.0268143 0.146812
17413 7 0.362407 0.0277584 0.139722
17458 1 0.321434 0.0467986 0.188441
20020 5 0.290215 0.0757191 0.185647
20017 5 0.290959 0.0163902 0.187761
20041 7 0.291014 0.0163001 0.139419
17464 5 0.349543 0.0812393 0.189826
17414 7 0.361331 0.00358674 0.141497
17489 7 0.374275 0.0699696 0.140138
17490 7 0.388957 0.0518016 0.143417
17451 6 0.388969 0.0671832 0.143495
14928 3 0.446093 0.113012 0.147405
14856 3 0.443464 0.0387288 0.149527
15246 9 0.456804 0.0302408 0.148926
14929 4 0.44294 0.0764015 0.159335
14926 2 0.445211 0.101901 0.158804
14851 2 0.444774 0.0518411 0.16074
14931 5 0.469013 0.106004 0.163534
14857 5 0.467904 0.0474507 0.164419
17476 1 0.393153 0.0786898 0.163344
14934 5 0.426295 0.0432005 0.168451
14930 5 0.428418 0.110675 0.166427
17384 1 0.398159 0.0151522 0.166681
14848 1 0.492328 0.0147856 0.167566
17450 6 0.405828 0.0177992 0.14646
17491 7 0.419999 0.0238596 0.143321
17492 7 0.395669 0.0174849 0.140054
15247 9 0.431864 0.117256 0.145386
14832 1 0.498637 0.0766872 0.168199
17465 5 0.390943 0.0826193 0.184497
14906 1 0.419763 0.11072 0.186181
14838 5 0.490405 0.020625 0.188659
14840 5 0.489322 0.0782203 0.1874
14940 7 0.474941 0.125265 0.145117
14826 6 0.495713 0.0163566 0.146911
14995 7 0.409932 0.232521 0.209692
14994 7 0.433362 0.221696 0.209039
2033 7 0.0411512 0.121859 0.128769
1995 6 0.0321796 0.138091 0.130389
25291 7 0.0932706 0.121939 0.142252
25253 6 0.0869553 0.132455 0.147018
1927 6 0.0712684 0.16738 0.1289
2032 7 0.0447986 0.148053 0.126427
25275 1 0.0913614 0.13936 0.167849
25278 8 0.0276597 0.141955 0.145579
22957 9 0.0833211 0.201042 0.142484
22732 3 0.0957201 0.203539 0.148327
25353 3 0.0393889 0.237461 0.15051
25285 4 0.0343636 0.163564 0.15497
25359 5 0.02599 0.170646 0.173247
25356 5 0.0665045 0.237021 0.164962
25354 4 0.0451405 0.202755 0.162555
25351 2 0.0440675 0.227437 0.161723
25286 5 0.0655716 0.168402 0.167022
25279 2 0.0428957 0.177418 0.164323
25259 1 0.0954087 0.203234 0.16768
25355 5 0.0266081 0.235292 0.169836
1963 7 0.0745761 0.161288 0.13545
1962 7 0.0617169 0.179954 0.130243
25433 7 0.0201311 0.202872 0.13818
25394 6 0.03577 0.201643 0.137436
25432 7 0.0384002 0.192859 0.144048
25459 9 0.040735 0.227379 0.144823
22668 7 0.11662 0.137751 0.137071
22726 8 0.125995 0.2043 0.145284
22740 7 0.194972 0.142469 0.138644
22807 5 0.12679 0.234616 0.169766
22730 5 0.12751 0.169172 0.168619
22630 6 0.129897 0.141486 0.133797
22667 7 0.134207 0.155408 0.137492
22700 6 0.203029 0.138673 0.144981
22636 1 0.198871 0.140648 0.165646
22729 4 0.14544 0.140815 0.156657
22733 4 0.135767 0.22846 0.151623
20188 7 0.211709 0.191497 0.143214
20189 7 0.211431 0.216081 0.142915
22741 7 0.214948 0.149341 0.145244
20148 6 0.201565 0.203776 0.143953
22728 5 0.138115 0.179612 0.150349
20110 3 0.239672 0.170219 0.146829
20176 5 0.237552 0.242451 0.151812
20177 4 0.245098 0.203112 0.15737
20105 2 0.244705 0.177708 0.158132
20173 2 0.243644 0.228185 0.160831
22727 2 0.14196 0.241992 0.160709
22725 2 0.14522 0.16552 0.159741
20178 5 0.224279 0.23241 0.168859
20183 5 0.227418 0.169257 0.165801
22723 1 0.189947 0.204931 0.164113
22734 5 0.164513 0.234801 0.163568
22731 5 0.167295 0.174858 0.163276
22646 5 0.192383 0.140477 0.183444
20154 1 0.218552 0.232587 0.187993
20103 1 0.223581 0.172079 0.186902
20354 9 0.248311 0.157768 0.144559
20090 5 0.248765 0.138677 0.186907
22713 5 0.187119 0.202146 0.18384
25347 7 0.0147458 0.154168 0.213817
17555 4 0.339469 0.140018 0.156114
20102 1 0.292456 0.139175 0.165269
17802 9 0.35152 0.226764 0.142651
17554 3 0.337827 0.176528 0.145588
17801 9 0.336101 0.191902 0.146324
17558 3 0.338849 0.226913 0.147154
17552 2 0.342105 0.165371 0.156842
17553 2 0.343192 0.239834 0.15782
17557 5 0.365375 0.173724 0.161194
17559 5 0.365631 0.233413 0.162433
17556 5 0.324305 0.174345 0.163996
20179 5 0.266709 0.236505 0.163473
20111 5 0.267404 0.1695 0.162088
20084 1 0.296426 0.201831 0.1641
17631 5 0.325578 0.233177 0.165714
20091 5 0.28934 0.136985 0.183647
20094 5 0.291798 0.202035 0.184091
17538 5 0.350761 0.202816 0.185659
17531 1 0.319683 0.170748 0.185645
17551 1 0.326411 0.230474 0.186794
17564 7 0.371745 0.191859 0.141083
15011 7 0.423652 0.230221 0.126196
14898 6 0.485264 0.137545 0.145295
17563 7 0.392705 0.205508 0.137177
17566 7 0.39403 0.151044 0.140266
14913 5 0.489173 0.141844 0.184587
17565 7 0.417974 0.150878 0.143541
17525 6 0.40467 0.141621 0.143829
14939 7 0.473978 0.148868 0.144494
17459 1 0.397375 0.141481 0.164597
14924 1 0.494989 0.138076 0.165642
17526 6 0.387475 0.196327 0.14326
14899 6 0.446603 0.198134 0.132551
14938 7 0.431203 0.20165 0.131426
14937 7 0.451905 0.208204 0.137767
15248 9 0.445431 0.178357 0.141084
15002 3 0.445558 0.23939 0.145772
14932 3 0.445432 0.166375 0.147143
15000 2 0.446904 0.22753 0.157545
15003 4 0.445051 0.202889 0.155942
14927 2 0.445477 0.177809 0.157988
15005 5 0.470173 0.235832 0.160614
14933 5 0.469385 0.172027 0.162235
15004 5 0.42818 0.234697 0.164959
17550 1 0.392365 0.202083 0.163297
15008 5 0.425466 0.170413 0.165169
17539 5 0.393972 0.205368 0.184446
14979 1 0.419434 0.236092 0.185168
14916 5 0.489319 0.201061 0.18499
17468 5 0.392492 0.138603 0.186001
14925 1 0.424921 0.1742 0.186704
15249 9 0.432064 0.247054 0.145486
15014 7 0.480631 0.246837 0.145502
12369 7 0.499632 0.234815 0.205995
14907 1 0.498156 0.199816 0.164994
14991 5 0.450442 0.20236 0.188189
15026 6 0.368213 0.177029 0.227241
25195 5 0.0921187 0.018097 0.185099
25471 9 0.0764408 0.00703984 0.241884
25269 6 0.000964328 0.110662 0.240344
25311 7 0.0111527 0.11762 0.23505
25268 5 0.0495079 0.0836137 0.189467
25258 1 0.0202847 0.108443 0.188833
25207 1 0.0272546 0.0477797 0.192944
25191 2 0.0744723 0.0842356 0.192618
25263 4 0.0791926 0.107988 0.19545
25197 4 0.0756258 0.0685251 0.202596
25192 5 0.0764268 0.0258938 0.203188
25308 6 0.0250574 0.117717 0.208872
25196 3 0.0385564 0.0464919 0.211769
25190 8 0.0706405 0.0481278 0.212278
25510 9 0.0290209 0.046275 0.218794
22684 7 0.0896291 0.0894391 0.215116
25517 7 0.0769744 0.0305241 0.230976
25310 7 0.0635449 0.106677 0.225981
25272 7 0.0310573 0.112547 0.2158
25240 6 0.0787147 0.0464901 0.227278
22685 7 0.0889571 0.0818947 0.226699
25506 7 0.0717935 0.0578334 0.23261
22649 6 0.0917575 0.0951121 0.222635
25194 5 0.0511267 0.0167281 0.190495
25189 2 0.0745524 0.0102228 0.193718
25201 6 0.0150557 0.0548836 0.236792
25231 3 0.063916 0.0814619 0.244297
25472 9 0.0562873 0.0885096 0.238455
22760 7 0.109785 0.114516 0.233198
25227 3 0.0695142 0.0192274 0.245404
25270 6 0.0479438 0.106635 0.229102
22958 9 0.116058 0.10366 0.210563
22717 6 0.112431 0.119375 0.240836
25309 7 0.0502641 0.117051 0.235345
25237 7 0.0130961 0.069143 0.235333
22759 7 0.127172 0.124408 0.240144
20029 1 0.223854 0.0466978 0.188649
22687 7 0.152736 0.00624929 0.225135
22648 6 0.138781 0.0113812 0.228344
22651 7 0.132263 0.0518195 0.214753
22683 6 0.126211 0.0493096 0.207466
22644 3 0.12836 0.110546 0.205207
22919 9 0.157709 0.102066 0.244655
22918 9 0.153615 0.0154738 0.24257
20063 7 0.183449 0.0189579 0.223334
22637 2 0.170992 0.0689297 0.192371
22641 4 0.173275 0.0447809 0.195929
22565 2 0.17328 0.0187682 0.195077
22640 5 0.169771 0.0872948 0.20051
22650 7 0.138628 0.0446439 0.202899
20024 7 0.225205 0.0689709 0.213573
20060 6 0.229846 0.0568376 0.209146
22638 8 0.15889 0.108838 0.208554
22686 7 0.140548 0.0277602 0.230781
20100 7 0.254707 0.112749 0.225167
20023 6 0.151385 0.0553239 0.228792
20130 6 0.24007 0.105952 0.226923
22688 6 0.168844 0.107503 0.22322
22954 7 0.164678 0.0915558 0.227199
20135 7 0.223887 0.0365877 0.246892
20061 7 0.155268 0.0624245 0.235458
20062 7 0.165821 0.050496 0.225599
20022 6 0.188374 0.0341115 0.223909
17509 7 0.243963 0.0243085 0.217966
20064 7 0.189817 0.0380056 0.216381
22647 5 0.149487 0.0128484 0.192682
20134 7 0.207339 0.0404776 0.237286
20096 6 0.211058 0.0446092 0.244712
20133 7 0.213544 0.120484 0.23663
22675 3 0.162776 0.0864846 0.244454
20131 6 0.220061 0.115973 0.206325
22571 3 0.181861 0.0111222 0.206308
17471 6 0.249737 0.0107735 0.221115
22608 3 0.158301 0.00912259 0.249566
20098 7 0.224056 0.110876 0.213807
20101 7 0.244426 0.0951069 0.231897
22965 7 0.162563 0.119517 0.228318
20099 7 0.206457 0.123993 0.206756
20025 7 0.244601 0.058997 0.208604
20366 9 0.244149 0.0647853 0.244636
17510 7 0.250225 0.0160111 0.228388
25236 7 0.00406461 0.0481868 0.231533
17477 1 0.323228 0.108939 0.187231
20016 5 0.248988 0.0188701 0.191249
22670 7 0.216287 0.00274924 0.14874
20095 5 0.24946 0.0764203 0.189543
15274 9 0.478092 0.162818 0.204498
20056 3 0.255587 0.0754009 0.244256
17460 2 0.37307 0.0746474 0.192206
20013 2 0.272373 0.0832501 0.193183
20379 9 0.282701 0.0588142 0.204439
20089 4 0.273745 0.108832 0.194545
20019 3 0.275805 0.0736396 0.204626
20378 9 0.271017 0.0108008 0.212158
17472 7 0.30513 0.113869 0.210276
17508 6 0.31883 0.108191 0.206762
17466 6 0.315837 0.0413665 0.208893
17493 7 0.300201 0.0379552 0.210849
17494 7 0.321477 0.0504106 0.214746
17473 7 0.325781 0.0996744 0.212327
14960 7 0.350208 0.0770403 0.216613
17548 7 0.274644 0.0976194 0.214787
17578 6 0.278448 0.112723 0.218307
14918 6 0.338273 0.0765402 0.221724
14959 7 0.346078 0.0790907 0.22799
17469 5 0.3506 0.013195 0.191288
17544 6 0.310049 0.119977 0.238752
17456 7 0.28533 0.0632887 0.239342
17457 7 0.30917 0.0597256 0.234369
20014 3 0.275704 0.0204638 0.20611
20012 2 0.271312 0.010382 0.1951
17503 6 0.300501 0.0557349 0.240173
20051 3 0.259412 0.0274171 0.242796
17499 3 0.360679 0.0888764 0.24101
20365 9 0.273592 0.0351423 0.242758
17463 4 0.372178 0.0499244 0.190784
17427 4 0.350262 0.0134609 0.244783
17583 7 0.297063 0.120919 0.234534
17386 2 0.371613 0.0248666 0.193699
17813 9 0.374211 0.0981354 0.241181
17582 7 0.321864 0.115762 0.233526
17462 3 0.380023 0.079421 0.203961
17549 7 0.275085 0.122167 0.212308
17392 5 0.391516 0.0145904 0.188123
14849 1 0.424006 0.048277 0.189797
17391 3 0.378077 0.0243643 0.205904
17826 9 0.389953 0.068285 0.206988
14875 4 0.45539 0.0733351 0.244195
14917 5 0.448697 0.0790368 0.190588
14837 5 0.449433 0.0168203 0.192657
14911 4 0.474356 0.112135 0.194308
14834 2 0.47115 0.0875064 0.195015
14942 7 0.421563 0.111118 0.214038
14839 3 0.478357 0.0821557 0.206609
14914 6 0.41514 0.110029 0.207005
14955 6 0.41373 0.0523897 0.208212
15273 9 0.479821 0.0974405 0.210579
14922 7 0.424909 0.0540947 0.214052
14941 7 0.404406 0.0979164 0.208286
14923 7 0.406929 0.0379731 0.210251
15308 7 0.470631 0.0584554 0.218201
12291 6 0.432832 0.112474 0.228409
14884 6 0.456835 0.0485062 0.221012
15297 7 0.458673 0.0324871 0.217089
12366 6 0.483086 0.114509 0.220707
12328 7 0.438193 0.102247 0.234016
15303 9 0.404381 0.0593537 0.233731
14868 8 0.447136 0.0524482 0.235386
14951 6 0.395891 0.114477 0.241273
14904 7 0.406792 0.114022 0.23487
14835 3 0.480268 0.0178506 0.207777
14874 3 0.416744 0.0522775 0.237719
14833 2 0.472608 0.0106072 0.196166
14870 5 0.454306 0.0309259 0.244124
12408 7 0.469083 0.113123 0.224534
17825 9 0.386798 0.0112782 0.207956
14847 7 0.441301 0.00285574 0.235058
15272 9 0.48464 0.00501217 0.211986
25267 5 0.0912145 0.201498 0.18783
25345 7 0.00522905 0.248415 0.212205
25484 9 0.0870881 0.123234 0.212941
25271 7 0.0396696 0.124976 0.205795
22706 1 0.120807 0.168498 0.187184
25265 5 0.0897486 0.143487 0.188868
25512 9 0.00326023 0.181675 0.234516
15031 7 0.409703 0.230599 0.234416
22829 7 0.0406104 0.222496 0.236934
22791 6 0.0354753 0.23242 0.23141
25381 7 0.0100085 0.233955 0.235429
25304 4 0.0564105 0.199754 0.243974
25346 7 0.0223784 0.233718 0.216721
22751 3 0.116309 0.235615 0.240882
25303 3 0.014993 0.177773 0.240578
25260 2 0.075543 0.132969 0.197962
25378 6 0.0129818 0.235696 0.210025
25264 5 0.0506796 0.139973 0.197015
25332 1 0.019767 0.232856 0.190279
25276 1 0.0241465 0.170867 0.191582
25342 5 0.0492693 0.201942 0.193814
25337 4 0.076043 0.233715 0.195648
25261 2 0.0737723 0.208984 0.19607
25266 3 0.0804363 0.19847 0.207315
25262 3 0.0834843 0.136563 0.209818
25485 9 0.0946929 0.190958 0.206177
22756 6 0.117509 0.167715 0.206769
22720 7 0.110846 0.154601 0.210047
25377 6 0.0150938 0.168697 0.211348
25507 7 0.0619131 0.18331 0.218864
25518 7 0.0653773 0.156425 0.221939
25314 6 0.063553 0.172479 0.225734
25297 8 0.0452143 0.175109 0.238038
22757 7 0.0912076 0.162965 0.239775
22825 6 0.119018 0.234909 0.209912
22758 7 0.0975701 0.185693 0.238304
22718 6 0.104988 0.171518 0.240009
22795 7 0.103605 0.236904 0.212094
22960 9 0.105164 0.237297 0.234522
25299 5 0.0573446 0.15536 0.247183
22724 1 0.124508 0.23447 0.189548
22796 7 0.125303 0.246351 0.213733
20097 6 0.20881 0.126433 0.243431
22722 7 0.126424 0.169624 0.228359
20132 7 0.22154 0.135815 0.245573
22719 7 0.130586 0.168889 0.211981
22716 5 0.1513 0.134751 0.186063
22645 4 0.174126 0.12988 0.201216
22747 5 0.155849 0.213969 0.246571
22712 5 0.147947 0.200271 0.190812
22639 2 0.172353 0.143482 0.191205
22708 2 0.171984 0.193676 0.192864
22711 4 0.171633 0.168257 0.19292
22710 3 0.180898 0.201747 0.203769
22932 9 0.184871 0.187729 0.208186
20167 7 0.197756 0.225214 0.208708
20204 6 0.211722 0.235055 0.208162
20168 7 0.206613 0.250186 0.210139
20092 3 0.230823 0.172462 0.205225
22721 7 0.148916 0.161217 0.233192
20406 9 0.21824 0.170693 0.211296
22762 6 0.159474 0.231054 0.22365
22966 7 0.172778 0.220206 0.223527
22745 8 0.14704 0.236054 0.238087
20166 6 0.181554 0.166013 0.216552
20206 7 0.169968 0.172174 0.221347
22755 6 0.141828 0.167791 0.22681
20205 7 0.174895 0.156565 0.211427
22955 7 0.148742 0.223696 0.217972
20170 7 0.236039 0.229563 0.220867
22920 9 0.178583 0.138074 0.241361
20203 6 0.247953 0.226027 0.225757
20165 6 0.207918 0.24141 0.239664
20208 7 0.213253 0.229536 0.235397
20169 7 0.253308 0.239559 0.229015
22679 3 0.163154 0.138468 0.243441
20164 5 0.24817 0.209323 0.187121
17618 7 0.3049 0.246097 0.22649
17814 9 0.34289 0.133995 0.242335
17543 5 0.349362 0.145502 0.187445
17861 7 0.365325 0.243627 0.229609
17651 6 0.294677 0.24679 0.220598
20123 3 0.265029 0.150413 0.244359
20367 9 0.260712 0.166531 0.244182
17504 3 0.356761 0.141666 0.243307
20085 2 0.271016 0.133489 0.191663
20086 8 0.260722 0.172796 0.208879
17815 9 0.36746 0.197424 0.238768
20087 2 0.271632 0.209775 0.191087
17533 2 0.373817 0.198033 0.19077
20159 4 0.276099 0.233634 0.196124
20088 5 0.268909 0.149538 0.200842
20093 4 0.271316 0.192851 0.200011
17547 7 0.339325 0.157951 0.203272
17536 5 0.369568 0.213083 0.200211
17540 3 0.33 0.229289 0.205067
17579 6 0.324786 0.162626 0.205573
17534 8 0.359287 0.233669 0.209143
17546 7 0.320533 0.153394 0.211004
17854 9 0.3158 0.233044 0.209517
20368 9 0.260307 0.207163 0.237642
20136 6 0.275778 0.168516 0.222606
20413 7 0.272926 0.180835 0.228721
20402 7 0.272996 0.153115 0.226671
17545 6 0.321338 0.237169 0.240208
20127 3 0.264011 0.198441 0.244005
17571 3 0.365082 0.209944 0.243921
17580 7 0.330259 0.227053 0.244932
17617 7 0.282571 0.237942 0.222762
17461 2 0.372348 0.147054 0.191829
17584 6 0.370335 0.231637 0.223626
14996 7 0.362017 0.166152 0.232168
14997 7 0.372149 0.170231 0.220697
17850 7 0.366095 0.216681 0.227625
14985 4 0.475367 0.233558 0.194521
17827 9 0.377875 0.124147 0.204874
12329 7 0.437574 0.125581 0.231485
14919 6 0.418427 0.176053 0.239597
14915 3 0.474198 0.19516 0.204017
14905 7 0.386759 0.128401 0.240587
12353 7 0.491464 0.18913 0.239986
17467 3 0.370684 0.137639 0.203806
14957 7 0.431877 0.166802 0.237709
14920 7 0.430487 0.178813 0.214828
14992 6 0.406242 0.234372 0.242021
14921 7 0.436926 0.190343 0.205242
12407 7 0.480352 0.127597 0.215619
14909 2 0.472465 0.208079 0.193122
14910 3 0.482073 0.147119 0.204161
14952 3 0.465291 0.200056 0.24672
17537 4 0.3748 0.173344 0.192745
15030 7 0.390275 0.230412 0.240842
14912 5 0.448706 0.145951 0.190124
14958 7 0.411672 0.178986 0.232895
15275 9 0.489425 0.196499 0.206688
14956 6 0.425447 0.180414 0.207551
14908 2 0.471697 0.137095 0.193391
15261 9 0.467949 0.162064 0.240279
14947 3 0.458643 0.149078 0.239957
15262 9 0.45272 0.19242 0.243348
15027 6 0.423288 0.233188 0.205351
22830 7 0.0435087 0.24705 0.231707
17581 7 0.332289 0.249072 0.241084
17636 7 0.406745 0.250394 0.137558
15245 9 0.435072 0.000517983 0.15051
22613 7 0.121106 0.00145335 0.236938
22653 7 0.119361 0.00462797 0.21418
25178 3 0.0218961 0.0545438 0.297543
25245 3 0.0226578 0.103165 0.300718
25251 5 0.0123792 0.0483889 0.277742
25248 5 0.0528054 0.116724 0.28807
25247 5 0.00912064 0.118745 0.283879
25246 4 0.0281684 0.0832857 0.28456
25243 2 0.0289952 0.107467 0.288833
25224 1 0.0819742 0.0834242 0.285332
25179 5 0.0533225 0.0522386 0.285485
25173 2 0.0288428 0.0575249 0.285737
22624 5 0.110598 0.0505947 0.284247
22699 5 0.110921 0.109545 0.283312
25170 1 0.0783911 0.0188478 0.28595
25232 5 0.0776754 0.08242 0.263185
25230 5 0.0765301 0.0205084 0.26592
22671 1 0.105907 0.0530285 0.26455
22619 1 0.110493 0.115256 0.261162
25171 1 0.0113336 0.0536435 0.257343
25229 5 0.038259 0.0220454 0.258223
25294 1 0.00569549 0.114451 0.261583
25306 5 0.0373379 0.0826346 0.257939
25226 2 0.060345 0.0907646 0.255521
25225 2 0.0611627 0.013276 0.257111
25300 4 0.06138 0.115795 0.254867
25496 9 0.0347206 0.0515695 0.302091
25288 6 0.0941748 0.0849464 0.304613
25218 6 0.0780991 0.0213116 0.305708
25257 7 0.104161 0.0988921 0.30388
25256 7 0.104683 0.0733876 0.306425
25497 9 0.021694 0.08676 0.301777
25184 7 0.0920937 0.02352 0.309259
25183 7 0.0711014 0.0110618 0.310633
22622 3 0.126266 0.0521778 0.303121
22626 3 0.126824 0.11889 0.300828
22943 9 0.121919 0.0393144 0.308166
22623 4 0.129365 0.0179288 0.291464
22681 5 0.132101 0.0292136 0.260704
22620 2 0.130432 0.0432166 0.29166
22621 2 0.130745 0.120215 0.28844
19999 4 0.223743 0.0416711 0.297093
19993 2 0.23003 0.06011 0.289307
20068 2 0.23139 0.109129 0.292287
20071 4 0.229382 0.0845697 0.292893
22625 5 0.154434 0.0510584 0.288652
22627 5 0.153109 0.109839 0.285504
22618 1 0.178348 0.0825365 0.285507
20072 5 0.213753 0.115953 0.283345
20076 5 0.212368 0.0541438 0.280853
22600 1 0.183768 0.0177039 0.286253
22609 5 0.172994 0.0216841 0.267413
22678 5 0.174361 0.0836458 0.264625
20119 1 0.204761 0.113795 0.263603
19990 1 0.208509 0.0512372 0.264304
22677 5 0.134977 0.0825022 0.259253
20129 5 0.233582 0.0878101 0.25936
20053 5 0.234753 0.0244946 0.258909
22602 2 0.156836 0.0267154 0.258237
22673 2 0.158259 0.0766958 0.255871
22676 4 0.160568 0.0510933 0.254307
19998 3 0.188415 0.0145976 0.305105
19992 8 0.219793 0.0189434 0.30583
20409 9 0.17905 0.0140317 0.31158
20070 3 0.225934 0.116731 0.304235
20391 9 0.232543 0.106841 0.309292
20073 5 0.254488 0.115266 0.288143
20000 5 0.252725 0.0542467 0.28487
20124 4 0.260693 0.114251 0.253111
17448 5 0.354002 0.112262 0.285121
17440 8 0.316289 0.0823245 0.3045
17446 3 0.285401 0.0827188 0.303515
17442 5 0.324743 0.0610657 0.295711
17447 4 0.317705 0.10457 0.294502
17443 4 0.330865 0.0222551 0.287705
17439 2 0.331072 0.0476638 0.286321
17441 2 0.33021 0.119125 0.286804
20048 1 0.284406 0.0846732 0.2835
19989 1 0.27751 0.0226837 0.282245
17445 5 0.353807 0.0561443 0.283115
17524 5 0.3158 0.118996 0.277193
17444 5 0.313773 0.0508467 0.278081
20057 5 0.274058 0.080028 0.263333
17495 1 0.304414 0.0533047 0.260391
17506 5 0.331387 0.027795 0.259058
20054 5 0.2746 0.0204772 0.262094
17438 1 0.308671 0.115963 0.259274
17501 5 0.333086 0.0866913 0.256322
17421 2 0.354781 0.0295562 0.253606
20050 2 0.25724 0.0890869 0.254856
20049 2 0.256106 0.0155145 0.253996
17497 2 0.356158 0.0803759 0.252545
20040 6 0.280239 0.018143 0.302803
20004 7 0.267859 0.0213814 0.307403
20005 7 0.29228 0.0170566 0.30794
17857 9 0.276549 0.0947476 0.308804
17502 5 0.375381 0.0850597 0.25988
17428 5 0.375768 0.0215695 0.260322
17379 7 0.388657 0.0257821 0.307249
17437 1 0.379979 0.0843809 0.279972
14860 6 0.490826 0.0847851 0.303346
15286 9 0.432205 0.0305903 0.298141
14890 5 0.427239 0.122297 0.29727
14822 3 0.424884 0.045162 0.298643
14891 4 0.431236 0.0815247 0.29098
14817 2 0.429662 0.0571138 0.287637
14887 2 0.433306 0.107057 0.287949
14823 5 0.453768 0.0496967 0.285217
17418 1 0.380911 0.0231568 0.280265
14893 5 0.454379 0.116151 0.283215
14897 5 0.415013 0.0527975 0.277907
14892 5 0.413272 0.111678 0.280622
14866 1 0.484 0.0816766 0.281589
14814 1 0.478689 0.0211128 0.281279
14873 5 0.475836 0.0253893 0.260285
14876 5 0.476602 0.0830232 0.261493
14815 1 0.410645 0.0518513 0.258082
14943 1 0.406631 0.114727 0.261087
14954 5 0.433749 0.090295 0.258716
17412 6 0.383781 0.0156463 0.300987
14869 2 0.457664 0.0896769 0.253867
14872 5 0.43338 0.0218164 0.258303
14867 2 0.456743 0.016561 0.253809
17380 7 0.396798 0.00608597 0.300171
14827 7 0.488558 0.0823301 0.310974
17455 7 0.410588 0.0442238 0.31129
14948 4 0.461668 0.114209 0.250293
25296 2 0.0584758 0.140724 0.256866
25241 1 0.0788746 0.144906 0.285199
25249 3 0.025354 0.178607 0.301287
25319 3 0.0289571 0.242932 0.300066
25360 6 0.0871987 0.214782 0.302145
25322 5 0.0525222 0.243155 0.283342
25321 5 0.0138473 0.244136 0.280523
25320 4 0.031893 0.209837 0.287467
25317 2 0.0316813 0.234356 0.288336
25295 1 0.0828524 0.209143 0.281604
25250 5 0.0541737 0.174172 0.286361
25244 2 0.0317114 0.184058 0.28909
22695 5 0.111126 0.179993 0.282455
22773 5 0.111437 0.240939 0.280081
25325 5 0.0138251 0.178565 0.280975
25302 5 0.0785318 0.147393 0.263637
25305 5 0.0742591 0.209195 0.262264
22742 1 0.105346 0.177146 0.260792
22690 1 0.107591 0.239105 0.259842
25301 5 0.0348314 0.144005 0.261156
25242 1 0.00841379 0.178094 0.259856
25376 5 0.0325408 0.209101 0.258863
25298 2 0.0553036 0.214318 0.254507
25371 4 0.0567488 0.239932 0.252113
25289 6 0.079694 0.153127 0.306388
25254 7 0.0941578 0.159985 0.303875
25366 1 0.00346187 0.239984 0.260088
25330 7 0.0784117 0.223207 0.307014
25331 7 0.102228 0.221041 0.302467
25498 9 0.0181014 0.192067 0.304082
25255 7 0.0691712 0.164373 0.305927
1996 7 0.0500604 0.243614 0.310901
25515 7 0.0210228 0.126915 0.311597
25504 7 0.0212785 0.154976 0.310757
22693 3 0.124507 0.169119 0.301278
22697 3 0.124963 0.24755 0.30011
22944 9 0.126077 0.133427 0.304032
22945 9 0.116393 0.182769 0.30294
22704 7 0.201643 0.13673 0.303857
22694 4 0.130009 0.145381 0.28555
22691 2 0.130132 0.169723 0.288465
22748 4 0.163385 0.174754 0.253408
22674 2 0.159403 0.150022 0.254476
22754 5 0.137014 0.143781 0.258787
20202 5 0.232667 0.205317 0.256968
22672 1 0.183437 0.145656 0.283504
20142 4 0.225195 0.210667 0.28716
20147 5 0.216416 0.172434 0.281847
22696 5 0.152435 0.180794 0.285825
20074 3 0.223414 0.181719 0.301782
20141 3 0.226572 0.243876 0.29887
20069 2 0.230961 0.186781 0.290015
22698 5 0.153512 0.239577 0.285576
22689 1 0.174925 0.21151 0.283884
20392 9 0.210969 0.171362 0.301292
20139 2 0.228867 0.236397 0.287075
20143 5 0.208899 0.24406 0.280854
20067 1 0.209457 0.1776 0.262059
22680 5 0.174135 0.142284 0.263396
22750 5 0.173674 0.206061 0.265215
20190 1 0.200422 0.241304 0.259969
22749 5 0.134807 0.200869 0.260409
20125 5 0.233915 0.146679 0.257402
22744 2 0.157782 0.199764 0.256111
22737 6 0.181727 0.213017 0.304517
22736 6 0.189678 0.147388 0.303472
22703 7 0.197478 0.208908 0.304847
22952 7 0.134707 0.225925 0.310818
20081 7 0.300286 0.139246 0.308326
17572 4 0.36159 0.175964 0.253659
20126 5 0.272747 0.146779 0.263881
20075 5 0.254791 0.179211 0.288133
20144 5 0.251943 0.242136 0.283251
20066 1 0.278971 0.145226 0.284145
17517 2 0.330866 0.246634 0.288309
17516 2 0.330633 0.168939 0.289465
17518 3 0.326893 0.177822 0.301219
17522 3 0.32705 0.23838 0.300085
20079 7 0.304206 0.1972 0.304624
20114 6 0.291288 0.206916 0.304242
17519 4 0.330444 0.142602 0.291176
17521 5 0.354603 0.173749 0.285498
20120 1 0.283791 0.206087 0.283512
17523 5 0.353253 0.239319 0.284284
17520 5 0.31363 0.178452 0.28237
17595 5 0.314189 0.237698 0.280016
17567 1 0.303464 0.176784 0.261428
20128 5 0.275313 0.206533 0.262552
17515 1 0.311426 0.239383 0.26064
17577 5 0.334715 0.147992 0.25967
17573 5 0.334769 0.207754 0.258394
17498 2 0.357587 0.150726 0.255162
20121 2 0.257261 0.138916 0.254924
17569 2 0.357943 0.200727 0.255142
20122 2 0.256802 0.212279 0.25433
20196 4 0.260739 0.236803 0.252774
20113 6 0.285734 0.140139 0.304735
20080 7 0.297657 0.221538 0.304282
17839 9 0.327002 0.16477 0.306003
20082 7 0.276841 0.151716 0.309
17840 9 0.338595 0.227157 0.301818
17529 7 0.359499 0.19821 0.303373
17561 6 0.371126 0.208293 0.304634
17530 7 0.370545 0.210889 0.312483
17574 5 0.374489 0.207788 0.263405
22102 7 0.246686 0.172246 0.310341
22103 7 0.269176 0.183461 0.312348
15305 9 0.378365 0.133558 0.306092
17505 5 0.376468 0.141627 0.261935
17514 1 0.379634 0.207125 0.284131
14945 2 0.458581 0.139917 0.25203
14886 1 0.410982 0.177866 0.259796
14894 3 0.388516 0.144888 0.302277
14972 5 0.412626 0.180098 0.279447
14896 5 0.453097 0.175965 0.283743
14968 5 0.412123 0.24223 0.283953
14888 8 0.419585 0.145202 0.304731
14966 3 0.424267 0.241895 0.302305
12342 3 0.485805 0.207382 0.302759
14895 4 0.42411 0.167817 0.296296
14964 2 0.431076 0.23361 0.290612
14967 4 0.429776 0.208405 0.290845
14889 2 0.430702 0.18349 0.287889
17496 1 0.385324 0.144145 0.282593
14969 5 0.453708 0.240827 0.287693
14944 1 0.483069 0.208923 0.28505
14885 1 0.478222 0.146365 0.281198
14953 5 0.475115 0.211137 0.265317
14936 6 0.481714 0.146651 0.301822
14950 5 0.476168 0.147044 0.260293
15015 1 0.404692 0.238687 0.262253
15025 5 0.43606 0.20809 0.259862
14949 5 0.434778 0.145418 0.256094
14946 2 0.458937 0.214863 0.256369
15020 4 0.459365 0.239719 0.253981
15287 9 0.428642 0.231737 0.30757
14900 7 0.49388 0.144838 0.306956
12753 9 0.473237 0.208179 0.308316
14901 7 0.469146 0.143714 0.306484
24544 6 0.0816358 0.0161879 0.33325
24654 7 0.0859071 0.0884257 0.323924
24655 7 0.101228 0.0908615 0.333211
24614 6 0.0864714 0.0853242 0.331485
24820 9 0.0260475 0.0560522 0.332524
24550 1 0.0850743 0.0845994 0.352494
24571 2 0.0292749 0.0583453 0.349377
24576 3 0.0278688 0.0453912 0.338228
24577 5 0.053015 0.0535308 0.353482
24639 2 0.0310445 0.108554 0.347763
24643 4 0.0292019 0.0833379 0.346153
24644 5 0.0130299 0.115448 0.356606
24645 5 0.0547205 0.114605 0.350247
24649 5 0.0113097 0.0519984 0.356953
24568 1 0.0782424 0.0232349 0.354052
22022 5 0.114237 0.055919 0.353809
22097 5 0.116316 0.121454 0.356529
24582 7 0.0924178 0.019159 0.327234
22665 6 0.120577 0.0243224 0.319784
24581 7 0.0685428 0.00877256 0.329747
24560 5 0.0789891 0.0848711 0.371376
22634 7 0.125495 0.0367142 0.323594
22017 1 0.115536 0.116886 0.373732
24642 5 0.0235863 0.123097 0.338366
24620 1 0.00849486 0.115942 0.375351
22024 3 0.128308 0.106949 0.337758
22267 9 0.13334 0.0740023 0.336876
22020 3 0.132962 0.0576229 0.336408
22633 7 0.126571 0.0129386 0.32442
22032 7 0.204457 0.0337746 0.330412
22021 4 0.136835 0.0223895 0.347414
20065 6 0.238622 0.0223025 0.318392
20416 7 0.237914 0.0370137 0.322856
22631 7 0.187109 0.0645146 0.328512
22632 7 0.167125 0.0641583 0.335669
19714 9 0.234941 0.0789378 0.331518
22666 6 0.177331 0.074896 0.331999
19468 3 0.228368 0.110558 0.333491
19398 3 0.232927 0.062372 0.333164
19466 2 0.23487 0.109051 0.345938
19469 4 0.236029 0.0839271 0.349277
19393 2 0.235609 0.0596507 0.345697
19470 5 0.214635 0.114783 0.353433
19474 5 0.21569 0.0488512 0.351632
22016 1 0.183317 0.0857145 0.352055
22018 2 0.134493 0.0475149 0.348111