ITEM: TIMESTEP
218000
ITEM: NUMBER OF ATOMS
25520
ITEM: BOX BOUNDS pp pp pp
-3.5760510171258059e-01 6.0056148691711861e+01
-1.9129435951037295e+00 5.9083228869105227e+01
-1.2579843803805796e+01 1.1185557620980990e+02
ITEM: ATOMS id type xs ys zs
25182 6 0.110914 0.0124599 0.148501
25252 6 0.11066 0.0702274 0.14983
25214 3 0.0407404 0.0383811 0.157019
25287 5 0.0347302 0.047588 0.175904
25283 5 0.0747435 0.109846 0.168919
25282 5 0.0342342 0.108121 0.174459
25281 4 0.0500743 0.0777604 0.163082
25277 2 0.0518895 0.102986 0.165754
25215 5 0.0740436 0.0450651 0.167921
25209 2 0.0506486 0.052181 0.166352
25188 1 0.104815 0.0752033 0.169921
25458 9 0.0506525 0.0262899 0.154968
25206 1 0.100047 0.0135544 0.169416
2433 1 0.00903136 0.0127092 0.173988
25280 5 0.0423367 0.120215 0.15733
25219 7 0.108972 0.0152418 0.141001
25220 7 0.122242 0.0234507 0.149881
25290 7 0.0900574 0.130263 0.147717
1949 1 0.000484838 0.0747521 0.173585
25293 7 0.123158 0.0781469 0.147594
25292 7 0.114888 0.0546375 0.149261
22735 5 0.135918 0.1063 0.168666
22660 5 0.135899 0.0444784 0.170046
22905 9 0.152871 0.0602834 0.148955
22662 3 0.14802 0.0967352 0.150281
22658 3 0.149517 0.0452108 0.150877
22656 2 0.154925 0.0378896 0.162428
20108 5 0.23514 0.106844 0.167668
20112 5 0.237579 0.0444581 0.169946
22663 5 0.17756 0.105962 0.164322
22654 1 0.202285 0.0769477 0.168255
22661 5 0.178213 0.047408 0.16553
22669 7 0.22501 0.0241336 0.148508
22659 4 0.158005 0.0125494 0.162841
22563 1 0.208011 0.012898 0.169483
22629 6 0.217841 0.0104209 0.150172
22906 9 0.14432 0.107475 0.144491
22657 2 0.15486 0.111834 0.160196
20352 9 0.255867 0.0510314 0.145513
20353 9 0.239604 0.115475 0.14732
20036 3 0.251793 0.0402713 0.151278
20106 3 0.254516 0.112123 0.149705
25312 7 0.000512055 0.120787 0.240118
20107 4 0.256053 0.0761783 0.161334
20031 2 0.25614 0.0507234 0.162508
20104 2 0.256183 0.101408 0.161484
20118 7 0.322896 0.0817089 0.146622
20117 7 0.299108 0.0856291 0.144533
20077 6 0.308091 0.0754622 0.148698
17480 3 0.350285 0.043596 0.150668
17799 9 0.36191 0.0374451 0.146839
17484 3 0.346318 0.101065 0.151636
17478 2 0.353783 0.0363945 0.163104
20109 5 0.277847 0.108951 0.165748
17482 5 0.336243 0.0456192 0.170626
20037 5 0.278628 0.041652 0.165354
20011 1 0.306797 0.0764733 0.168803
20028 1 0.302819 0.0126839 0.168707
17481 4 0.353773 0.0110569 0.162938
20003 6 0.299491 0.0115307 0.148155
17560 5 0.336188 0.106571 0.170934
17479 2 0.352904 0.113848 0.162032
17800 9 0.35629 0.091088 0.149643
25382 7 -0.00212972 0.223668 0.241723
20041 7 0.285626 0.01864 0.146345
20042 7 0.307379 0.0253827 0.147923
17378 6 0.377058 0.00517392 0.13921
17483 5 0.377547 0.0437961 0.165908
17485 5 0.376905 0.10771 0.16643
17490 7 0.430032 0.0849828 0.149271
17489 7 0.414707 0.0985115 0.143175
17451 6 0.41317 0.0859899 0.147846
14856 3 0.450868 0.0341506 0.153791
15246 9 0.465006 0.0264913 0.152059
14929 4 0.453704 0.0749397 0.160632
14926 2 0.454681 0.100357 0.161388
14851 2 0.455058 0.05034 0.163322
14931 5 0.478266 0.106909 0.164553
14857 5 0.478795 0.0446617 0.167558
17476 1 0.403301 0.0759854 0.166631
14934 5 0.437738 0.0442888 0.171871
14930 5 0.437437 0.108135 0.169267
17384 1 0.406782 0.0142037 0.170444
17450 6 0.41525 0.0100256 0.150228
17491 7 0.427983 0.0184459 0.147962
17492 7 0.40258 0.0122322 0.144892
14928 3 0.450337 0.112871 0.150152
15247 9 0.441829 0.125885 0.151839
17465 5 0.399755 0.0748797 0.18599
14913 5 0.498849 0.143708 0.188977
25291 7 0.077783 0.149379 0.151745
2032 7 0.0197855 0.143937 0.129821
25284 3 0.00217239 0.14409 0.155243
2033 7 0.043854 0.156501 0.131492
1995 6 0.0341817 0.143869 0.134841
25253 6 0.0931073 0.145498 0.149173
25275 1 0.102207 0.13795 0.169395
25278 8 0.0308829 0.141033 0.15023
22957 9 0.0952337 0.21336 0.14835
22732 3 0.107068 0.204145 0.1528
25285 4 0.0432686 0.163529 0.1578
25359 5 0.0373079 0.169721 0.177199
25356 5 0.0767025 0.232549 0.170994
25354 4 0.0493783 0.202154 0.16563
25351 2 0.0534278 0.227193 0.168182
25286 5 0.0769917 0.170851 0.168244
25279 2 0.0515527 0.176922 0.167077
25259 1 0.10819 0.200906 0.171937
25355 5 0.0366713 0.235625 0.175849
25433 7 0.0381085 0.192615 0.145784
25394 6 0.0294607 0.203772 0.142433
25432 7 0.0330812 0.217128 0.147224
1933 1 0.00476481 0.138794 0.174707
25353 3 0.0521831 0.242241 0.158111
2103 7 0.0063994 0.196998 0.148609
15031 7 0.395004 0.227538 0.242627
22668 7 0.124491 0.137074 0.139887
2104 7 -0.00124371 0.17577 0.154391
2017 1 2.03274e-05 0.202203 0.174734
22740 7 0.201217 0.123733 0.143594
1962 7 0.150584 0.19459 0.12899
1927 6 0.139911 0.205384 0.132819
22630 6 0.138415 0.131583 0.137492
1963 7 0.146711 0.221606 0.130517
22726 8 0.136168 0.20187 0.148288
22730 5 0.138643 0.166944 0.172242
22667 7 0.148298 0.137182 0.142662
22700 6 0.212336 0.129953 0.148191
22636 1 0.209568 0.138264 0.168171
22729 4 0.155137 0.137601 0.158633
22733 4 0.14399 0.224704 0.15636
20188 7 0.198644 0.204914 0.140269
20189 7 0.219734 0.200455 0.147381
22741 7 0.217586 0.142503 0.143949
20148 6 0.204455 0.20548 0.147651
22728 5 0.147395 0.179227 0.155444
22725 2 0.155486 0.162102 0.163352
20178 5 0.234306 0.233927 0.171847
20183 5 0.238494 0.17016 0.168867
22723 1 0.201058 0.202593 0.168056
22731 5 0.177733 0.171844 0.167099
22734 5 0.176833 0.231883 0.168121
22807 5 0.13961 0.23324 0.175676
22727 2 0.152152 0.238252 0.165667
20176 5 0.246702 0.243115 0.154135
20110 3 0.246648 0.165881 0.149574
20177 4 0.247565 0.203403 0.159198
20354 9 0.244481 0.150514 0.151115
20173 2 0.251603 0.227533 0.163157
20105 2 0.253959 0.17774 0.159973
17555 4 0.349039 0.13884 0.15941
20102 1 0.302171 0.138493 0.167258
17554 3 0.346964 0.174844 0.148849
17801 9 0.347601 0.16295 0.143287
17558 3 0.335954 0.229879 0.151727
17552 2 0.351926 0.164366 0.160526
17556 5 0.33335 0.170833 0.167907
20111 5 0.277617 0.171251 0.163319
20084 1 0.306013 0.200301 0.168411
17631 5 0.33508 0.235424 0.171032
17802 9 0.340479 0.214609 0.150109
20179 5 0.275942 0.232049 0.166034
17553 2 0.350235 0.239635 0.161612
20091 5 0.299377 0.138574 0.186811
14840 5 0.499182 0.0761551 0.190608
14940 7 0.4766 0.127432 0.147672
17559 5 0.374488 0.230819 0.162737
14938 7 0.466338 0.186866 0.127745
14937 7 0.475784 0.190328 0.138522
17557 5 0.373623 0.169877 0.16541
17564 7 0.391475 0.205917 0.142519
17563 7 0.410711 0.222404 0.142252
17566 7 0.39925 0.146159 0.144698
17565 7 0.42353 0.146877 0.147815
17525 6 0.409567 0.13949 0.149356
17459 1 0.40473 0.138967 0.169241
17526 6 0.405959 0.208489 0.145384
14899 6 0.46422 0.195307 0.133509
15248 9 0.445204 0.179997 0.143694
15002 3 0.45322 0.232109 0.146933
14932 3 0.446229 0.166165 0.148655
15000 2 0.453092 0.224471 0.158951
15003 4 0.450773 0.199661 0.159569
14927 2 0.453108 0.174912 0.159983
15005 5 0.476342 0.231208 0.16289
14933 5 0.477197 0.167874 0.162173
15004 5 0.434694 0.234469 0.165741
17550 1 0.400907 0.200768 0.165659
15008 5 0.436413 0.168601 0.168803
14939 7 0.483819 0.151483 0.152093
15249 9 0.452123 0.21874 0.142005
14898 6 0.488852 0.13798 0.147344
14979 1 0.430529 0.233489 0.187309
14916 5 0.498894 0.200355 0.186453
17539 5 0.398884 0.202495 0.185997
2441 5 -0.000488287 0.00923986 0.195644
25227 3 0.065718 0.0136807 0.246166
25195 5 0.100401 0.0155343 0.189642
25198 5 0.100249 0.0745202 0.190158
1941 5 0.000481651 0.139087 0.195654
25268 5 0.0579668 0.0781862 0.194788
25258 1 0.0294301 0.106861 0.194708
25207 1 0.0326869 0.0458329 0.196195
25191 2 0.0818833 0.0826333 0.198391
25263 4 0.0839497 0.107071 0.199443
25197 4 0.0792186 0.0670182 0.208108
25192 5 0.0803563 0.0254712 0.207359
25196 3 0.0398464 0.0445402 0.215643
25190 8 0.071587 0.0453279 0.217325
25510 9 0.0315269 0.0463921 0.223345
22684 7 0.103528 0.0922987 0.226412
25517 7 0.0751592 0.0394941 0.23781
25240 6 0.0862105 0.0443908 0.231403
22685 7 0.087019 0.0916545 0.21691
25506 7 0.0940661 0.0594535 0.233819
22649 6 0.0927275 0.100901 0.222502
25194 5 0.0597949 0.016994 0.19311
25189 2 0.0824447 0.0106408 0.197732
25201 6 0.0213528 0.0358985 0.242881
25472 9 0.0661835 0.093845 0.239508
25237 7 0.0370255 0.0315373 0.244638
25310 7 0.067252 0.119607 0.227748
25231 3 0.0706761 0.0813887 0.244445
25308 6 0.0318872 0.0967602 0.214868
25272 7 0.0390907 0.10047 0.221882
25271 7 0.0444868 0.0869727 0.211746
25269 6 0.0123995 0.112462 0.242644
25270 6 0.0566441 0.117877 0.233553
25311 7 0.0249186 0.11588 0.237458
25236 7 0.0167607 0.0207651 0.241541
22717 6 0.106802 0.118649 0.243049
22650 7 0.113569 0.0523554 0.209121
22759 7 0.112226 0.117833 0.235284
22687 7 0.125777 0.000637533 0.232408
22958 9 0.124696 0.108031 0.214027
2508 9 0.00207716 0.0832051 0.216058
15274 9 0.48265 0.159011 0.208656
22643 5 0.203442 0.0768519 0.189284
20083 1 0.229524 0.107147 0.189037
20062 7 0.137019 0.0679477 0.235751
22572 5 0.199999 0.0146858 0.187945
22919 9 0.183869 0.0765656 0.243899
22648 6 0.128823 0.0103236 0.226265
22686 7 0.143628 0.0152281 0.228372
22651 7 0.119705 0.031968 0.216337
22683 6 0.125726 0.0421934 0.210692
22635 1 0.129325 0.0458573 0.18982
20135 7 0.208193 0.0617024 0.236551
22931 9 0.179969 0.0222385 0.213337
22655 1 0.13526 0.105318 0.189417
20029 1 0.235432 0.0468293 0.190224
22642 5 0.160827 0.078175 0.189995
20063 7 0.190987 0.0720642 0.218021
22637 2 0.182301 0.0712225 0.195874
22641 4 0.185555 0.0465745 0.198045
22565 2 0.183388 0.0213523 0.196405
22640 5 0.17761 0.0868197 0.205171
20060 6 0.235262 0.0472684 0.210798
20023 6 0.126413 0.0788666 0.234231
20061 7 0.12811 0.0878614 0.240388
20022 6 0.197703 0.0646577 0.223778
20064 7 0.208735 0.0542421 0.220591
22647 5 0.159681 0.0183927 0.193343
20134 7 0.231478 0.0631325 0.241162
20096 6 0.21651 0.0605485 0.243368
22571 3 0.187615 0.0121385 0.208118
22612 6 0.166876 0.0339898 0.223015
22577 7 0.17413 0.0478244 0.224172
22576 7 0.153404 0.0359674 0.218143
22638 8 0.167943 0.110357 0.212071
22918 9 0.170584 0.0246777 0.241365
22644 3 0.137622 0.1082 0.208541
22965 7 0.168694 0.102588 0.232836
22688 6 0.176419 0.112748 0.227093
22675 3 0.172074 0.0856493 0.246923
20133 7 0.198068 0.106054 0.240358
20097 6 0.212786 0.106818 0.244311
20132 7 0.224166 0.103261 0.238624
20098 7 0.235703 0.108124 0.216075
20131 6 0.23059 0.115754 0.209837
22608 3 0.171739 0.014865 0.247264
22920 9 0.166844 0.121645 0.247296
20099 7 0.244624 0.124321 0.209033
20017 5 0.299165 0.0129157 0.188797
20024 7 0.242152 0.0347331 0.213769
20020 5 0.300836 0.0741418 0.189892
17510 7 0.253904 0.02341 0.230104
17471 6 0.254952 0.0127144 0.224014
20025 7 0.248188 0.0570664 0.211902
17427 4 0.358332 0.00601521 0.247866
12353 7 0.497835 0.186441 0.241855
20051 3 0.268182 0.0195666 0.246674
20130 6 0.253796 0.110215 0.232921
20366 9 0.259837 0.0861123 0.239792
20016 5 0.259816 0.0168251 0.193296
17477 1 0.333705 0.108319 0.191022
17458 1 0.328531 0.0445965 0.191218
20095 5 0.260345 0.0740637 0.191266
17464 5 0.359102 0.0786977 0.190527
20013 2 0.281627 0.0826918 0.196635
20379 9 0.292314 0.0647299 0.209976
20089 4 0.283007 0.108121 0.197526
20019 3 0.280885 0.0753266 0.208735
20378 9 0.278248 0.0151945 0.213845
17466 6 0.324167 0.0497562 0.211664
17493 7 0.315183 0.0373396 0.213828
17494 7 0.327101 0.0578947 0.218466
17473 7 0.344539 0.101761 0.213823
14960 7 0.360452 0.0743988 0.216884
17548 7 0.290139 0.101805 0.216209
14918 6 0.349188 0.0767221 0.222637
14959 7 0.355672 0.0701466 0.229142
17469 5 0.357805 0.0109974 0.196127
17456 7 0.292655 0.0346417 0.242754
17457 7 0.291648 0.0591469 0.240952
20014 3 0.289181 0.018824 0.208477
20012 2 0.281657 0.00816378 0.197102
17503 6 0.303138 0.0469945 0.243072
17499 3 0.36633 0.0845764 0.244047
17582 7 0.335688 0.098088 0.240769
20056 3 0.267944 0.0784879 0.245605
17583 7 0.316285 0.108338 0.233487
17544 6 0.322275 0.107199 0.240739
17508 6 0.333068 0.110996 0.210763
17578 6 0.294859 0.115802 0.220101
20101 7 0.269053 0.109105 0.231253
17472 7 0.320392 0.111762 0.216583
20365 9 0.268903 0.00509994 0.24207
14870 5 0.461268 0.0276698 0.246716
17813 9 0.380091 0.0925647 0.243964
17463 4 0.37928 0.0445665 0.194104
17460 2 0.381615 0.0698553 0.194074
17462 3 0.385784 0.0761324 0.206387
17386 2 0.381477 0.0208368 0.197813
17825 9 0.396114 0.0063771 0.211572
17391 3 0.38825 0.0203634 0.21034
14906 1 0.43001 0.106658 0.188834
17392 5 0.40156 0.0101617 0.192589
17826 9 0.400589 0.0707774 0.208718
14849 1 0.43418 0.0458073 0.19186
14917 5 0.459698 0.0774989 0.193543
14837 5 0.457803 0.0173582 0.196762
14911 4 0.481346 0.110886 0.195407
14834 2 0.481267 0.0864429 0.197714
14839 3 0.487189 0.0790641 0.20925
14955 6 0.422722 0.0502647 0.211946
15273 9 0.491745 0.0912595 0.214218
14922 7 0.433885 0.0500576 0.21686
14923 7 0.416317 0.0348842 0.212523
15308 7 0.470995 0.0668208 0.221689
14884 6 0.462896 0.051415 0.224547
15297 7 0.473135 0.0394752 0.220867
15303 9 0.413534 0.0649893 0.239045
14868 8 0.453968 0.0502768 0.238891
14835 3 0.486672 0.015215 0.211707
14874 3 0.424741 0.0538536 0.242709
14833 2 0.480988 0.00962121 0.199946
12328 7 0.450546 0.0966679 0.236216
14951 6 0.406616 0.109375 0.242325
14942 7 0.429781 0.107845 0.215664
12291 6 0.443968 0.107821 0.230962
14914 6 0.423551 0.109936 0.208541
14904 7 0.419411 0.107366 0.237114
14875 4 0.465102 0.0741588 0.246385
14941 7 0.408 0.113112 0.209523
12366 6 0.488872 0.109167 0.224178
12408 7 0.472056 0.107123 0.225286
14847 7 0.455201 0.000594299 0.236946
15272 9 0.49019 0.00195025 0.215799
12329 7 0.449477 0.120594 0.234699
14905 7 0.398826 0.121494 0.240316
25484 9 0.0956562 0.126776 0.213056
17860 7 0.370969 0.00652071 0.224292
22760 7 0.0942046 0.109599 0.241874
25309 7 0.0639796 0.127956 0.238982
22960 9 0.114664 0.229214 0.234918
25343 6 0.0069206 0.237147 0.240246
22791 6 0.0776219 0.229421 0.22963
25267 5 0.101685 0.198079 0.192717
25265 5 0.099116 0.140882 0.189456
25348 7 0.0162126 0.152802 0.213616
25347 7 0.0103481 0.176685 0.213991
25512 9 0.00944252 0.176957 0.239347
25303 3 0.0226343 0.17759 0.244399
25260 2 0.0817999 0.133305 0.197628
25264 5 0.0587172 0.14187 0.19614
25332 1 0.029218 0.233101 0.196846
25276 1 0.0350082 0.169021 0.194321
25342 5 0.0583149 0.201385 0.197237
25337 4 0.0866426 0.230994 0.198877
25261 2 0.083253 0.205949 0.200181
25266 3 0.0861163 0.201742 0.212233
25262 3 0.0911046 0.13962 0.209002
25485 9 0.0855604 0.214898 0.216635
22720 7 0.111828 0.162509 0.212906
25377 6 0.0233803 0.167216 0.213923
25507 7 0.0720778 0.181072 0.222966
25518 7 0.0528074 0.165054 0.220337
25314 6 0.0641144 0.167523 0.226732
25297 8 0.0528263 0.172201 0.241054
22757 7 0.0999239 0.172026 0.238992
22718 6 0.110474 0.178026 0.243858
25304 4 0.0614783 0.195943 0.248321
25378 6 0.0318813 0.223588 0.216982
22830 7 0.0729467 0.218335 0.234631
25381 7 0.0124792 0.234523 0.233213
25345 7 0.0429064 0.22548 0.222368
25346 7 0.0310256 0.208017 0.215855
22795 7 0.116337 0.237514 0.214773
22829 7 0.071655 0.242112 0.233391
22758 7 0.123259 0.17931 0.239267
22796 7 0.121893 0.213787 0.212926
22646 5 0.201237 0.139757 0.187376
22751 3 0.124345 0.235673 0.241269
20103 1 0.233284 0.170369 0.189022
22713 5 0.199374 0.203249 0.189193
22716 5 0.160149 0.135628 0.191571
22747 5 0.162682 0.212069 0.246783
22825 6 0.129613 0.226901 0.214212
20207 7 0.201567 0.227122 0.236943
20208 7 0.225651 0.223151 0.239047
22954 7 0.174026 0.128345 0.230817
22756 6 0.125414 0.170793 0.21143
22706 1 0.131226 0.169352 0.191423
22719 7 0.134047 0.169236 0.21845
20154 1 0.22889 0.233552 0.190571
22724 1 0.138107 0.231769 0.194162
22722 7 0.15511 0.179475 0.239356
22645 4 0.182712 0.131382 0.205526
22712 5 0.160662 0.203476 0.196318
22639 2 0.182376 0.144261 0.194776
22708 2 0.183594 0.193986 0.197712
22711 4 0.182589 0.168783 0.196976
22710 3 0.193327 0.199319 0.209025
22932 9 0.193217 0.186573 0.21358
20167 7 0.214517 0.221859 0.211555
20204 6 0.226436 0.232735 0.211492
20092 3 0.238306 0.169099 0.207958
22721 7 0.154257 0.156179 0.235472
20406 9 0.224041 0.174986 0.211708
22966 7 0.178793 0.220558 0.222882
22745 8 0.156208 0.235334 0.239135
20166 6 0.194676 0.162201 0.2201
20206 7 0.18049 0.163197 0.223644
22755 6 0.149812 0.171028 0.23304
20205 7 0.192517 0.151679 0.21384
22762 6 0.174269 0.236521 0.22679
20165 6 0.212533 0.229148 0.24233
22679 3 0.165693 0.138034 0.24654
20168 7 0.216673 0.246227 0.211925
20169 7 0.249781 0.217378 0.223847
17581 7 0.339061 0.24931 0.245521
17827 9 0.370133 0.132903 0.211494
20100 7 0.253685 0.116144 0.24015
17549 7 0.290035 0.127226 0.214936
20094 5 0.299439 0.203761 0.187102
20090 5 0.257182 0.131691 0.188828
17854 9 0.326676 0.235473 0.213886
17531 1 0.327473 0.169696 0.189152
17551 1 0.333272 0.233201 0.19053
20170 7 0.273491 0.209747 0.221395
17538 5 0.358541 0.201725 0.189094
17545 6 0.330548 0.236623 0.24313
20164 5 0.259019 0.199206 0.190617
20203 6 0.26358 0.214079 0.227429
20368 9 0.271104 0.204751 0.241596
17543 5 0.358489 0.138566 0.193021
20085 2 0.279931 0.133324 0.194118
20086 8 0.26708 0.169019 0.212119
20087 2 0.281628 0.207537 0.19576
20159 4 0.28051 0.232408 0.198891
20088 5 0.276675 0.148664 0.203279
20093 4 0.278039 0.193233 0.205569
17547 7 0.328647 0.148936 0.208843
17540 3 0.33879 0.232603 0.208483
17579 6 0.323199 0.163547 0.208934
17546 7 0.312786 0.165148 0.214999
20136 6 0.280673 0.163412 0.226546
20413 7 0.273905 0.171462 0.233018
20402 7 0.2823 0.148616 0.229836
20127 3 0.273564 0.196145 0.247767
17580 7 0.340799 0.22529 0.241081
20123 3 0.269309 0.150231 0.247122
17617 7 0.287931 0.238552 0.224839
17534 8 0.36904 0.233678 0.212024
20367 9 0.268271 0.166194 0.247398
17571 3 0.366872 0.20656 0.244924
17814 9 0.378143 0.15301 0.239453
17504 3 0.373847 0.140431 0.243857
14994 7 0.410592 0.215754 0.206182
14912 5 0.457485 0.142184 0.191364
17850 7 0.363311 0.233144 0.232747
15027 6 0.426893 0.220719 0.207076
17536 5 0.380521 0.21251 0.204067
17468 5 0.40001 0.13687 0.189745
17537 4 0.382093 0.17218 0.197118
15261 9 0.48237 0.152295 0.242746
12407 7 0.488849 0.122701 0.220313
17815 9 0.369703 0.194242 0.239429
14997 7 0.391323 0.182153 0.225307
15026 6 0.377229 0.177645 0.22821
14947 3 0.468473 0.143419 0.24359
14952 3 0.473962 0.20437 0.245381
15262 9 0.487203 0.21193 0.242123
14996 7 0.374885 0.166175 0.223184
14957 7 0.444131 0.162779 0.238195
15275 9 0.472741 0.190589 0.208995
14910 3 0.480719 0.143122 0.208711
17461 2 0.382206 0.14647 0.197174
14985 4 0.485507 0.232771 0.196326
14908 2 0.479711 0.135582 0.196226
14991 5 0.459754 0.200559 0.190348
17533 2 0.381328 0.197018 0.194456
14919 6 0.432824 0.173548 0.240852
17467 3 0.384112 0.139635 0.209405
14920 7 0.429708 0.171116 0.216296
14915 3 0.486346 0.193116 0.205464
14909 2 0.482719 0.207655 0.195343
14992 6 0.40842 0.237272 0.244066
14921 7 0.447414 0.16005 0.20993
14925 1 0.43351 0.171487 0.188959
17584 6 0.37689 0.23699 0.227123
14956 6 0.435731 0.170919 0.20903
14958 7 0.441557 0.187309 0.242177
14995 7 0.436391 0.208069 0.207856
25486 9 0.0851006 0.249121 0.218387
22955 7 0.171874 0.246185 0.219991
25178 3 0.0321866 0.0537151 0.302295
25245 3 0.0353432 0.103904 0.303752
25251 5 0.0175667 0.0462496 0.284039
25246 4 0.0369603 0.0816861 0.287233
25243 2 0.0376514 0.106714 0.291177
25224 1 0.0885103 0.0794882 0.284744
25179 5 0.0586162 0.0458682 0.28763
25173 2 0.0367557 0.0563736 0.290206
25170 1 0.0827741 0.0182756 0.287915
25232 5 0.0822052 0.0796064 0.263024
25230 5 0.0837036 0.0208429 0.264421
22671 1 0.110116 0.0494371 0.264051
25171 1 0.0145121 0.0483654 0.26253
25229 5 0.041994 0.019738 0.261789
25294 1 0.0121274 0.110783 0.263237
25306 5 0.0411136 0.0785345 0.260708
25226 2 0.0627592 0.0877774 0.256245
25225 2 0.063879 0.0103737 0.258151
25496 9 0.0313294 0.0381979 0.304365
25288 6 0.0957912 0.0790068 0.305366
25218 6 0.0931767 0.0184259 0.30765
25497 9 0.0343191 0.0893157 0.306038
22619 1 0.114646 0.111598 0.263057
25300 4 0.0621609 0.112934 0.257259
25257 7 0.105865 0.0912044 0.304933
25256 7 0.106539 0.0682442 0.307394
25247 5 0.0192092 0.116951 0.285165
25248 5 0.060965 0.114056 0.288684
25184 7 0.103015 0.0300243 0.309799
22699 5 0.12051 0.107826 0.282862
22624 5 0.116224 0.052958 0.285264
1929 7 0.00441826 0.0686063 0.306019
1931 7 0.00287147 0.00958262 0.306005
22622 3 0.132573 0.0524846 0.303914
22623 4 0.135059 0.018631 0.293402
22681 5 0.140298 0.0205198 0.260763
22620 2 0.136103 0.043893 0.292129
19999 4 0.22988 0.0417473 0.299313
19993 2 0.238233 0.0574642 0.291419
20068 2 0.23704 0.107697 0.29282
20071 4 0.235953 0.081517 0.295719
22625 5 0.159105 0.0497237 0.286682
22627 5 0.160446 0.109162 0.288805
22618 1 0.18411 0.0805837 0.285816
20076 5 0.220071 0.0553185 0.282535
22600 1 0.189501 0.0200836 0.285703
22609 5 0.183057 0.0190104 0.266207
22678 5 0.179769 0.0810713 0.266768
19990 1 0.216446 0.0504955 0.263403
22677 5 0.139255 0.0801611 0.259921
20129 5 0.24184 0.0824636 0.261276
20053 5 0.238899 0.0192052 0.261616
22602 2 0.164197 0.0248053 0.258051
22673 2 0.163698 0.0750774 0.257739
22676 4 0.164552 0.0504494 0.256262
19998 3 0.193142 0.0191754 0.304414
19992 8 0.223078 0.0191072 0.307641
20119 1 0.212276 0.112071 0.264238
22943 9 0.146375 0.0510129 0.307815
20072 5 0.21947 0.114071 0.284295
20391 9 0.230213 0.112147 0.309131
22626 3 0.129455 0.111276 0.301931
22621 2 0.136998 0.117778 0.290757
20070 3 0.233543 0.121181 0.303016
20409 9 0.181194 0.0255477 0.309565
22944 9 0.121038 0.122632 0.305674
20000 5 0.260529 0.0500097 0.287376
17448 5 0.360326 0.112333 0.285328
17440 8 0.322643 0.081263 0.305858
17446 3 0.292525 0.0833352 0.303879
17442 5 0.329278 0.0592046 0.297389
17447 4 0.330682 0.103398 0.298197
17443 4 0.339655 0.0202692 0.288395
17439 2 0.338305 0.0452334 0.288344
20048 1 0.290916 0.0830486 0.284459
19989 1 0.284988 0.0196392 0.285804
17445 5 0.362223 0.0545314 0.286331
17444 5 0.319343 0.0491029 0.280475
20057 5 0.28236 0.0814179 0.264237
17495 1 0.310249 0.0494576 0.262716
17506 5 0.341097 0.0181295 0.26204
20054 5 0.281058 0.019345 0.265329
17438 1 0.318683 0.114174 0.261878
17501 5 0.340094 0.0817293 0.258929
17421 2 0.362154 0.0232317 0.256479
20050 2 0.264405 0.0888769 0.2568
20049 2 0.261318 0.0115495 0.258225
17497 2 0.362228 0.0731305 0.255164
20040 6 0.300409 0.022688 0.304956
17500 4 0.362256 0.0486244 0.252462
20073 5 0.258959 0.112954 0.287446
20124 4 0.264213 0.114212 0.256099
17857 9 0.283348 0.0972131 0.306621
17524 5 0.320826 0.116274 0.280062
20004 7 0.311444 0.0345376 0.302901
17441 2 0.337197 0.118972 0.289427
20005 7 0.309429 0.00985923 0.306899
17502 5 0.38053 0.0790215 0.263184
17428 5 0.381285 0.0178382 0.264249
17437 1 0.383982 0.0812981 0.283605
15286 9 0.422447 0.0370509 0.302392
14822 3 0.430181 0.0509958 0.301922
14891 4 0.436264 0.0821931 0.289343
14817 2 0.436415 0.0568659 0.289995
14887 2 0.435158 0.106719 0.286725
14823 5 0.458342 0.0486276 0.286209
17418 1 0.388042 0.018986 0.283548
14893 5 0.458273 0.113206 0.282975
14897 5 0.41743 0.0481865 0.283202
14892 5 0.417398 0.110918 0.278509
14866 1 0.489689 0.0813659 0.285176
14814 1 0.482331 0.0176555 0.283981
14873 5 0.482078 0.020271 0.263837
14876 5 0.483269 0.0797332 0.26441
14815 1 0.415438 0.0475271 0.261505
14943 1 0.41248 0.111095 0.262164
14954 5 0.441843 0.0800611 0.2614
17412 6 0.396406 0.0205595 0.303734
14869 2 0.464202 0.0858291 0.257137
14872 5 0.441328 0.0180276 0.261086
14867 2 0.463644 0.0122831 0.256437
17380 7 0.407637 0.0104042 0.306404
14948 4 0.465612 0.111443 0.255796
17379 7 0.387138 0.0221178 0.310054
14860 6 0.494977 0.0793461 0.305934
14890 5 0.431124 0.12233 0.295675
14827 7 0.492986 0.0783834 0.314102
25296 2 0.0622574 0.13731 0.260159
25241 1 0.085704 0.142714 0.287541
25249 3 0.0398222 0.177436 0.305085
25360 6 0.0942731 0.206286 0.3057
25320 4 0.0354205 0.210465 0.292649
25317 2 0.0384958 0.234693 0.289884
25295 1 0.0909798 0.205123 0.284894
25250 5 0.0620966 0.178567 0.289897
25244 2 0.0386829 0.184911 0.293518
25325 5 0.0199515 0.174369 0.28635
25302 5 0.0820841 0.143223 0.267373
25305 5 0.0825712 0.206912 0.264279
22742 1 0.11132 0.175023 0.264905
25301 5 0.0411119 0.147029 0.265039
25242 1 0.0185363 0.174896 0.264211
25376 5 0.0406146 0.210699 0.261877
25298 2 0.0635799 0.214032 0.256667
25289 6 0.0857458 0.149776 0.307907
25366 1 0.0113758 0.238875 0.261359
25331 7 0.103675 0.218897 0.304599
25498 9 0.0437391 0.190287 0.309912
25371 4 0.0659986 0.239016 0.252348
22690 1 0.115757 0.237065 0.259636
22773 5 0.121855 0.236225 0.277552
25322 5 0.0619778 0.237589 0.285669
25330 7 0.0794995 0.211748 0.308149
25255 7 0.0722023 0.157936 0.307699
25321 5 0.0201048 0.240212 0.281729
22945 9 0.123539 0.172919 0.307466
22695 5 0.118794 0.177514 0.285516
25319 3 0.0383315 0.249203 0.30047
1996 7 0.0467758 0.220404 0.308468
22697 3 0.124346 0.237562 0.297319
22693 3 0.138853 0.172062 0.304181
22694 4 0.137811 0.14294 0.289221
22691 2 0.137861 0.168211 0.292055
22748 4 0.168564 0.172922 0.256004
22674 2 0.162915 0.148219 0.25793
22754 5 0.139944 0.143626 0.262445
20202 5 0.242023 0.201675 0.260687
22672 1 0.188948 0.143444 0.28571
20142 4 0.235316 0.203518 0.290054
20147 5 0.219364 0.169129 0.283949
22696 5 0.159825 0.176402 0.287068
20074 3 0.236688 0.168146 0.301636
20069 2 0.238412 0.178852 0.29034
22689 1 0.183764 0.205326 0.285534
20392 9 0.232022 0.152451 0.300937
20139 2 0.235426 0.228699 0.292446
20067 1 0.216457 0.174358 0.262697
22680 5 0.181235 0.138735 0.265053
22750 5 0.182727 0.205728 0.264409
22749 5 0.141645 0.199809 0.260605
20125 5 0.242096 0.145658 0.261955
22744 2 0.165188 0.198216 0.25665
22737 6 0.193904 0.197785 0.305847
22736 6 0.19239 0.140793 0.306574
20393 9 0.217291 0.219159 0.305942
22698 5 0.160375 0.234739 0.285304
20190 1 0.211255 0.234927 0.263409
20141 3 0.227835 0.230852 0.304396
20143 5 0.219127 0.239733 0.284273
22703 7 0.206433 0.188512 0.305428
22702 7 0.190967 0.198496 0.31348
22692 2 0.136861 0.244049 0.286556
22704 7 0.207817 0.145776 0.307335
22952 7 0.143363 0.201142 0.311129
22946 9 0.123941 0.249655 0.302098
20081 7 0.267694 0.13394 0.306509
20144 5 0.259825 0.235538 0.290671
17572 4 0.368132 0.17356 0.254075
20126 5 0.282961 0.14449 0.266413
20075 5 0.261478 0.172528 0.286768
20066 1 0.285647 0.142613 0.286836
17516 2 0.338312 0.168979 0.292804
17518 3 0.335265 0.178055 0.304639
20079 7 0.310363 0.196154 0.307723
20114 6 0.297737 0.206465 0.305854
17519 4 0.336625 0.144544 0.292487
17521 5 0.360838 0.174658 0.288742
20120 1 0.289674 0.207144 0.285034
17520 5 0.320313 0.177583 0.284979
17595 5 0.322488 0.236522 0.282941
17567 1 0.312438 0.175365 0.264955
20128 5 0.283005 0.205484 0.267315
17577 5 0.342109 0.142742 0.259078
17573 5 0.341041 0.201375 0.260224
17498 2 0.365501 0.14849 0.255098
20121 2 0.265731 0.138484 0.25805
17569 2 0.365006 0.19836 0.256315
20122 2 0.266065 0.208793 0.258152
20196 4 0.27003 0.234474 0.254774
20113 6 0.282725 0.140566 0.307356
17839 9 0.336721 0.166918 0.309679
17529 7 0.371865 0.222961 0.302386
17530 7 0.365732 0.199732 0.306023
17523 5 0.360118 0.23754 0.289399
17515 1 0.317706 0.237832 0.263472
17522 3 0.332958 0.242972 0.303676
17517 2 0.337544 0.246082 0.291808
20080 7 0.284132 0.201478 0.309628
17840 9 0.324109 0.230525 0.305749
22102 7 0.255114 0.175701 0.313494
17561 6 0.377732 0.210119 0.30573
15020 4 0.469341 0.240593 0.254893
17505 5 0.382137 0.142383 0.263871
17574 5 0.382655 0.209595 0.263892
17514 1 0.384941 0.207525 0.284861
14945 2 0.465763 0.136724 0.255453
14886 1 0.418134 0.175524 0.261168
14894 3 0.392289 0.142833 0.301749
14972 5 0.418571 0.179567 0.278319
14896 5 0.457324 0.1766 0.284983
14888 8 0.42182 0.143224 0.304477
12342 3 0.495169 0.207101 0.30476
14895 4 0.426776 0.167269 0.296535
14964 2 0.436435 0.232717 0.292103
14967 4 0.434471 0.207172 0.290858
14889 2 0.433701 0.182765 0.287651
17496 1 0.390297 0.145523 0.283372
14944 1 0.488922 0.207938 0.284887
14885 1 0.481739 0.144667 0.28464
14953 5 0.48132 0.207032 0.265248
14936 6 0.480064 0.139825 0.305513
14950 5 0.48433 0.147106 0.262087
15025 5 0.442468 0.2095 0.258804
14949 5 0.443478 0.145165 0.26033
14946 2 0.466726 0.215207 0.255895
14969 5 0.45912 0.238283 0.28774
15015 1 0.4124 0.236639 0.26338
15305 9 0.37995 0.144039 0.307697
14968 5 0.418949 0.23887 0.283934
12753 9 0.48345 0.209638 0.310569
14900 7 0.468777 0.141976 0.310936
14966 3 0.433015 0.23651 0.303948
22266 9 0.121484 0.00446846 0.336393
24544 6 0.0914461 0.0263782 0.333853
24654 7 0.0745409 0.0894916 0.330361
24655 7 0.0895095 0.0699851 0.329377
24614 6 0.0853723 0.0809587 0.334671
24820 9 0.0253323 0.0486535 0.336145
24550 1 0.0912207 0.0826233 0.355384
24571 2 0.0353143 0.0558826 0.351763
24576 3 0.0278581 0.0399981 0.342534
24577 5 0.0606365 0.0503469 0.353278
24639 2 0.0368071 0.10575 0.350343
24643 4 0.0338947 0.0809984 0.348437
24644 5 0.0181577 0.111101 0.358436
24645 5 0.0606263 0.111298 0.353852
24649 5 0.0201879 0.0519052 0.361375
24568 1 0.0863026 0.0223428 0.353983
22022 5 0.118194 0.0554659 0.355448
22097 5 0.121093 0.116861 0.355309
24582 7 0.104914 0.0348908 0.332885
24581 7 0.0870623 0.0231088 0.326112
24819 9 0.0383592 0.0103852 0.341645
24560 5 0.0872756 0.0883683 0.374362
22017 1 0.119573 0.118926 0.374786
1825 7 0.00233341 0.0181833 0.336486
24642 5 0.0306588 0.121108 0.341373
22268 9 0.125255 0.112423 0.331841
22267 9 0.131414 0.0696643 0.336436
22665 6 0.165334 0.0511122 0.320469
22634 7 0.152212 0.0501512 0.325326
22020 3 0.132125 0.0543838 0.33758
22024 3 0.134619 0.104942 0.337131
22032 7 0.205022 0.0390967 0.333664
22021 4 0.138628 0.0230117 0.351383
20065 6 0.239078 0.0216788 0.320629
22631 7 0.176318 0.0763709 0.329332
22632 7 0.165817 0.0959347 0.335349
19714 9 0.242016 0.0689275 0.332238
22666 6 0.179742 0.0880783 0.334324
19468 3 0.235066 0.109299 0.335113
19398 3 0.234083 0.0564243 0.335389
19466 2 0.239696 0.107888 0.347472
19469 4 0.238814 0.0834004 0.350244
19393 2 0.237777 0.0585099 0.348225
19470 5 0.221388 0.118672 0.353855
19474 5 0.218243 0.0501042 0.354432
22016 1 0.187818 0.0858679 0.354896
22018 2 0.138934 0.0479046 0.349282
22023 5 0.161944 0.0561684 0.35308
22025 5 0.16125 0.115831 0.351696
21925 1 0.189626 0.0227668 0.354121
21991 6 0.195022 0.0265332 0.333661
22019 2 0.138417 0.121555 0.346619
22633 7 0.176839 0.0438832 0.324167