ITEM: TIMESTEP
255000
ITEM: NUMBER OF ATOMS
25520
ITEM: BOX BOUNDS pp pp pp
-3.7062928396325634e-01 6.0069172873962941e+01
-1.9260933369567603e+00 5.9096378610958730e+01
-1.2606669973129124e+01 1.1188240237913423e+02
ITEM: ATOMS id type xs ys zs
25182 6 0.102192 0.0210722 0.151832
25252 6 0.105317 0.0779551 0.151611
25214 3 0.0363717 0.0389868 0.158948
25287 5 0.0324323 0.0477631 0.177438
25283 5 0.0739604 0.109196 0.170137
25282 5 0.0324892 0.109088 0.177404
25281 4 0.0459477 0.0791263 0.164602
25277 2 0.0492305 0.104009 0.167744
25215 5 0.0714087 0.0470795 0.170456
25209 2 0.0477173 0.0541921 0.167959
25188 1 0.103643 0.0745904 0.172231
25458 9 0.0478323 0.0344352 0.154518
25206 1 0.0971825 0.0146262 0.171751
2433 1 0.00579433 0.0143752 0.174985
25280 5 0.040978 0.119503 0.158732
25293 7 0.11445 0.0915885 0.152786
25292 7 0.0941894 0.0827002 0.146585
25219 7 0.115628 0.030253 0.150161
25220 7 0.0926441 0.025651 0.14593
2033 7 0.0451494 0.133976 0.132561
22735 5 0.132854 0.110347 0.173299
22660 5 0.133528 0.0457594 0.172399
22905 9 0.137361 0.0591623 0.15337
22662 3 0.140834 0.110096 0.153078
22658 3 0.14285 0.0444056 0.153638
22656 2 0.152454 0.0386521 0.164723
20108 5 0.230846 0.110092 0.171152
20112 5 0.231386 0.0456166 0.169561
22663 5 0.172543 0.10789 0.166561
22654 1 0.19782 0.0787687 0.170689
22661 5 0.174679 0.0496369 0.165767
22669 7 0.222417 0.0256882 0.15097
22659 4 0.1524 0.013969 0.166673
22563 1 0.203408 0.0162606 0.170922
22629 6 0.214133 0.0116414 0.150713
22906 9 0.145792 0.120988 0.147353
22657 2 0.149409 0.115913 0.163967
20036 3 0.249573 0.0434175 0.152026
22741 7 0.204326 0.12983 0.14281
20107 4 0.252212 0.0775978 0.162313
20106 3 0.244846 0.113423 0.152367
20352 9 0.251079 0.0552248 0.146886
20104 2 0.251 0.102664 0.164299
20031 2 0.251942 0.0518704 0.163548
20118 7 0.324916 0.0909867 0.147897
20117 7 0.325354 0.0662793 0.149324
20077 6 0.315005 0.07928 0.150165
17480 3 0.347436 0.045241 0.153202
17799 9 0.347245 0.031686 0.148351
17484 3 0.346806 0.112061 0.151929
17478 2 0.352238 0.0362771 0.164854
20109 5 0.274085 0.11004 0.167076
17482 5 0.334905 0.0437562 0.172984
20037 5 0.274146 0.0430922 0.16816
20011 1 0.305029 0.0766462 0.169974
20028 1 0.298074 0.0136496 0.17125
17481 4 0.349708 0.0109783 0.164761
20003 6 0.301596 0.0261221 0.152273
17560 5 0.333651 0.106191 0.170235
17479 2 0.351991 0.116783 0.16402
17800 9 0.360504 0.113293 0.147544
20041 7 0.287344 0.0338773 0.153101
20042 7 0.312363 0.0376759 0.151957
17378 6 0.344253 0.0104052 0.140686
17414 7 0.328865 0.0106085 0.142454
20123 3 0.261245 0.150692 0.249623
17483 5 0.374453 0.0448024 0.168612
17485 5 0.375778 0.108646 0.166742
17490 7 0.427246 0.0838128 0.151949
17489 7 0.41179 0.0695286 0.145273
17451 6 0.410773 0.0786723 0.151426
14856 3 0.447373 0.0330528 0.157134
15246 9 0.45541 0.0400365 0.151316
14929 4 0.448113 0.074103 0.163575
14926 2 0.451622 0.0998523 0.164094
14851 2 0.450354 0.0498567 0.167116
14931 5 0.474734 0.105514 0.168004
14857 5 0.473939 0.0484014 0.171042
17476 1 0.399068 0.0756589 0.170415
14934 5 0.43535 0.0425411 0.176162
14930 5 0.433139 0.109464 0.171221
17384 1 0.401609 0.0122808 0.174116
17450 6 0.404237 0.00662905 0.15394
14848 1 0.499369 0.014311 0.175062
14928 3 0.450059 0.106726 0.151809
15247 9 0.450428 0.121979 0.151271
17492 7 0.396576 0.00231966 0.147281
14940 7 0.485299 0.116873 0.149893
17566 7 0.421764 0.124531 0.148929
14826 6 0.496168 0.00366562 0.15538
25290 7 0.118205 0.148122 0.151321
2104 7 0.0147323 0.205076 0.150258
25291 7 0.0967675 0.156341 0.148185
14924 1 0.499806 0.137521 0.170155
25253 6 0.102645 0.145955 0.153369
2032 7 0.0313113 0.15763 0.13249
1995 6 0.033038 0.142651 0.136504
25275 1 0.0951831 0.14163 0.173587
25278 8 0.0296053 0.142469 0.152003
22957 9 0.0932182 0.191246 0.152716
22732 3 0.103168 0.205566 0.155042
25285 4 0.038552 0.165823 0.159258
25359 5 0.0342306 0.173736 0.178414
25356 5 0.0726598 0.23643 0.171831
25354 4 0.0465707 0.205069 0.165814
25351 2 0.0506631 0.22938 0.167907
25286 5 0.0719636 0.173818 0.171225
25279 2 0.0476191 0.179804 0.168324
25259 1 0.102781 0.204629 0.173144
25355 5 0.0317618 0.238744 0.174663
25433 7 0.050641 0.182939 0.144276
25394 6 0.0578805 0.195336 0.141088
25432 7 0.0603546 0.205599 0.147106
25353 3 0.0503108 0.240352 0.156238
2065 6 -0.000132057 0.206912 0.153689
22686 7 0.121932 0.00675071 0.235903
1933 1 0.00279134 0.141405 0.175508
22667 7 0.14689 0.155311 0.14581
22668 7 0.164919 0.141231 0.140392
22740 7 0.214507 0.145227 0.149563
1962 7 0.149915 0.202585 0.131851
1927 6 0.136178 0.208704 0.135708
22630 6 0.150143 0.145978 0.139498
1963 7 0.138714 0.226595 0.133763
22726 8 0.13297 0.206258 0.151055
22730 5 0.131434 0.169415 0.17495
22700 6 0.200567 0.13841 0.148823
22636 1 0.203537 0.139237 0.169528
22729 4 0.150836 0.14154 0.162537
22733 4 0.145112 0.227824 0.158362
20188 7 0.219291 0.211439 0.151879
20189 7 0.200567 0.227822 0.152551
20148 6 0.203124 0.213007 0.150935
22728 5 0.141416 0.181166 0.157557
22725 2 0.149589 0.166222 0.166647
20178 5 0.233867 0.234624 0.172448
20183 5 0.233414 0.176307 0.172209
22723 1 0.196993 0.205224 0.171299
22731 5 0.172443 0.174862 0.169485
22734 5 0.174684 0.234911 0.169804
22807 5 0.135277 0.238124 0.176973
22727 2 0.151056 0.242905 0.167495
20176 5 0.242746 0.246553 0.154774
20110 3 0.242957 0.161923 0.154222
20354 9 0.247793 0.167116 0.147388
20177 4 0.248033 0.204781 0.160388
20173 2 0.250501 0.22986 0.163684
20353 9 0.246308 0.129201 0.153311
20105 2 0.250319 0.178566 0.162667
17555 4 0.353357 0.142001 0.164719
20102 1 0.298399 0.139813 0.168414
17554 3 0.349133 0.169538 0.149297
17801 9 0.363642 0.16852 0.14576
17558 3 0.341362 0.230923 0.150666
17552 2 0.351178 0.166149 0.161654
17556 5 0.330967 0.174416 0.167881
20111 5 0.274427 0.174948 0.16586
20084 1 0.304927 0.201199 0.169223
17631 5 0.334282 0.233794 0.169735
17802 9 0.351737 0.219127 0.148632
20179 5 0.27528 0.237877 0.165025
17553 2 0.349972 0.241925 0.160887
17557 5 0.371762 0.177558 0.166741
17559 5 0.372945 0.23513 0.165097
17563 7 0.387723 0.216114 0.14203
14938 7 0.467946 0.191123 0.133683
14937 7 0.448876 0.204554 0.129811
17564 7 0.375661 0.196825 0.145028
17565 7 0.427882 0.150493 0.149221
17525 6 0.414855 0.13953 0.149178
17459 1 0.403194 0.140787 0.169088
17526 6 0.389603 0.20362 0.146788
14899 6 0.454984 0.198674 0.136037
15248 9 0.453549 0.177212 0.146833
15002 3 0.443696 0.230945 0.150122
14932 3 0.454425 0.164942 0.152334
15000 2 0.451412 0.225442 0.162082
15003 4 0.453571 0.199816 0.162222
14927 2 0.453565 0.174857 0.163664
15005 5 0.473928 0.234679 0.16524
14933 5 0.474974 0.168352 0.169245
15004 5 0.433371 0.233619 0.169948
17550 1 0.397087 0.203634 0.167214
15008 5 0.434696 0.166299 0.170986
14939 7 0.481289 0.141739 0.150689
15249 9 0.445832 0.21782 0.145876
14898 6 0.493139 0.130571 0.149745
14908 2 0.478374 0.133997 0.199587
15030 7 0.404986 0.247925 0.239659
25195 5 0.0979099 0.0159501 0.192453
25198 5 0.0973823 0.0767481 0.191607
25268 5 0.0565198 0.0722317 0.19527
25258 1 0.0251538 0.107843 0.195344
25207 1 0.031661 0.0467268 0.198408
25191 2 0.0783768 0.0820271 0.199462
25263 4 0.0756514 0.107098 0.202134
25197 4 0.0766362 0.0691289 0.210283
25192 5 0.0790638 0.0239056 0.209716
25196 3 0.041681 0.0468072 0.217014
25190 8 0.0725165 0.0451096 0.218694
25510 9 0.0302406 0.0487083 0.222995
22684 7 0.102853 0.0935776 0.228795
25517 7 0.0815909 0.0548157 0.239
25240 6 0.0871554 0.0452226 0.232318
22685 7 0.0877084 0.0927029 0.21867
25506 7 0.0867336 0.0291972 0.236474
22649 6 0.0921309 0.10213 0.224654
25194 5 0.057114 0.00827987 0.19745
25189 2 0.0813749 0.00778458 0.200498
25201 6 0.0115799 0.0428258 0.243761
25310 7 0.0646519 0.113027 0.231819
25308 6 0.0203681 0.104805 0.215691
25271 7 0.0317196 0.105473 0.221084
25269 6 0.00485608 0.116542 0.243697
25270 6 0.0511553 0.12027 0.231766
22717 6 0.121927 0.115442 0.244553
22687 7 0.109663 -0.000648786 0.22643
25204 7 0.0445415 0.0101056 0.215482
25237 7 0.0146366 0.0277877 0.241256
25472 9 0.0613679 0.0868446 0.242859
25231 3 0.0660407 0.0765751 0.248548
22759 7 0.127703 0.101906 0.241412
22635 1 0.125733 0.0438488 0.193341
22958 9 0.123265 0.11319 0.215935
22648 6 0.122045 0.00942023 0.228406
25272 7 0.00821869 0.11399 0.21923
25484 9 0.0899581 0.131187 0.216241
25205 7 0.0191966 0.0100456 0.217648
20023 6 0.133956 0.0795576 0.230025
22643 5 0.200184 0.0785816 0.19224
20062 7 0.129977 0.0655469 0.226922
22651 7 0.123277 0.0343466 0.218917
22650 7 0.144799 0.0359512 0.212586
20097 6 0.210956 0.112496 0.2475
20134 7 0.235619 0.0662306 0.242547
22675 3 0.166891 0.085539 0.249127
22683 6 0.130858 0.0436721 0.213636
22919 9 0.168581 0.0738789 0.243648
20133 7 0.20272 0.111403 0.240891
20061 7 0.147758 0.0739871 0.233204
20083 1 0.227951 0.110151 0.191904
22572 5 0.198459 0.01899 0.190592
20135 7 0.220248 0.0469521 0.239592
22931 9 0.1793 0.014208 0.215828
22655 1 0.131493 0.108713 0.191722
20029 1 0.231734 0.0469345 0.191384
22642 5 0.157505 0.0781203 0.192553
20063 7 0.19369 0.0658816 0.233293
22637 2 0.179326 0.0720008 0.198269
22641 4 0.178395 0.0470505 0.201895
22565 2 0.180378 0.0218136 0.198908
22640 5 0.174309 0.0878708 0.207352
20060 6 0.2362 0.0535359 0.211925
20022 6 0.179255 0.0614677 0.229445
20064 7 0.18278 0.067769 0.222579
22647 5 0.156845 0.0147981 0.195024
20096 6 0.221416 0.0599056 0.244643
22571 3 0.187448 0.0092228 0.209573
22612 6 0.168749 0.0187666 0.231996
22577 7 0.176491 0.032597 0.229658
22576 7 0.152122 0.0208483 0.231163
22638 8 0.165363 0.111102 0.21426
22918 9 0.16548 0.0161269 0.245361
22644 3 0.13557 0.116593 0.209858
22965 7 0.178124 0.0985359 0.233
22688 6 0.177786 0.112516 0.228515
20131 6 0.234438 0.119429 0.211854
20024 7 0.244477 0.0436874 0.216301
17510 7 0.223712 0.0200389 0.224519
17471 6 0.230722 0.02472 0.230814
17509 7 0.244978 0.0173324 0.231176
20098 7 0.246819 0.12958 0.209644
20099 7 0.233795 0.121584 0.219838
20025 7 0.248171 0.0628663 0.208237
22954 7 0.168428 0.122631 0.234478
20132 7 0.220455 0.0993495 0.246717
20130 6 0.251128 0.113457 0.232893
20365 9 0.266078 0.0047536 0.242307
20051 3 0.266396 0.0180565 0.24674
20017 5 0.29693 0.0135116 0.190527
20020 5 0.298307 0.0791802 0.189547
20366 9 0.262497 0.0958393 0.244782
20016 5 0.255491 0.0148704 0.194088
17477 1 0.333443 0.11014 0.1914
17458 1 0.327459 0.0459993 0.192561
20095 5 0.257505 0.0749765 0.194198
17464 5 0.356162 0.0811345 0.194678
20013 2 0.280672 0.0836306 0.198274
20379 9 0.299359 0.0660406 0.209332
20089 4 0.281079 0.108598 0.199579
20019 3 0.283449 0.0700275 0.208854
20378 9 0.279999 0.0384069 0.20799
17466 6 0.325282 0.0488602 0.212631
17493 7 0.312002 0.0397735 0.215249
17494 7 0.33203 0.0553253 0.21933
17473 7 0.339974 0.0962676 0.21558
14960 7 0.363051 0.0692771 0.222925
17548 7 0.286355 0.107422 0.218654
14918 6 0.349119 0.071655 0.226454
14959 7 0.352217 0.0809529 0.232996
17469 5 0.353092 0.0149235 0.197459
17456 7 0.287779 0.0396073 0.243794
17457 7 0.288623 0.0657429 0.244377
20014 3 0.28191 0.0219993 0.209459
20012 2 0.27866 0.00899877 0.198483
17503 6 0.297336 0.0517229 0.244997
17499 3 0.364477 0.0884173 0.24638
17508 6 0.33331 0.109729 0.212049
17578 6 0.293591 0.116634 0.223628
20101 7 0.264954 0.111315 0.229254
17472 7 0.320536 0.114008 0.217343
20056 3 0.264863 0.0836143 0.249743
15262 9 0.464333 0.218344 0.241394
14957 7 0.436811 0.188572 0.242769
17544 6 0.311525 0.113329 0.244665
17582 7 0.308343 0.118838 0.23765
17813 9 0.377509 0.0980498 0.246054
17463 4 0.378454 0.0470614 0.197372
17583 7 0.326267 0.108999 0.244162
17386 2 0.377004 0.0231376 0.201229
17391 3 0.378542 0.0175914 0.213408
17460 2 0.377926 0.0726414 0.198317
17462 3 0.381109 0.0792842 0.210082
15272 9 0.486419 0.00295419 0.21866
14840 5 0.496448 0.0754476 0.193799
17465 5 0.396169 0.0776358 0.190035
14906 1 0.426365 0.110339 0.190954
17392 5 0.395882 0.0124169 0.195195
17826 9 0.382185 0.0946247 0.211446
14849 1 0.431746 0.0466699 0.194329
14917 5 0.455647 0.0767382 0.196069
14837 5 0.45409 0.0148718 0.199176
14911 4 0.481459 0.108854 0.201231
14834 2 0.477624 0.0841432 0.200796
14839 3 0.479586 0.0776376 0.213273
14955 6 0.420697 0.0496501 0.21375
15273 9 0.481464 0.0915533 0.217164
14922 7 0.431553 0.0522085 0.219453
14923 7 0.407708 0.0584332 0.216242
15308 7 0.47183 0.0551056 0.225707
14884 6 0.457867 0.0463303 0.228616
15297 7 0.461293 0.0304104 0.225582
15303 9 0.40523 0.0510144 0.243541
14868 8 0.447649 0.0472252 0.243489
14835 3 0.483747 0.0156087 0.213789
14874 3 0.417716 0.0479818 0.248945
14833 2 0.4768 0.00645388 0.202411
12328 7 0.450575 0.098448 0.231124
14951 6 0.400193 0.114774 0.245212
14942 7 0.426496 0.102801 0.219448
12291 6 0.435695 0.0935686 0.232109
14914 6 0.425293 0.106991 0.211613
14904 7 0.405623 0.1144 0.237817
12366 6 0.478175 0.112424 0.228731
12329 7 0.433769 0.0907898 0.239961
14941 7 0.41463 0.118959 0.211863
14838 5 0.493866 0.0129213 0.193936
17825 9 0.389973 0.0269842 0.216618
12407 7 0.482929 0.119841 0.222687
12408 7 0.472471 0.123938 0.233256
25343 6 0.0081388 0.23857 0.239608
25381 7 0.0135844 0.238441 0.231496
14912 5 0.454937 0.139715 0.195181
25309 7 0.0493043 0.128613 0.238313
22791 6 0.0603915 0.232896 0.228451
25267 5 0.0983317 0.199439 0.194251
25265 5 0.0944973 0.136464 0.192323
25348 7 0.0419165 0.164733 0.219826
25347 7 0.0132307 0.164622 0.218366
25512 9 0.013271 0.18373 0.235556
25303 3 0.0210884 0.181227 0.242859
25260 2 0.0770518 0.132557 0.200446
25264 5 0.0534294 0.141088 0.198916
25332 1 0.0266232 0.234357 0.195942
25276 1 0.0322582 0.172489 0.196906
25342 5 0.0571645 0.204128 0.198045
25337 4 0.0823658 0.233581 0.20021
25261 2 0.0802488 0.208961 0.201439
25266 3 0.0852763 0.201392 0.213234
25262 3 0.085612 0.142791 0.21116
25485 9 0.0998674 0.192904 0.213471
22720 7 0.112191 0.159735 0.218091
25377 6 0.027946 0.172677 0.217297
25507 7 0.0731127 0.179861 0.221676
25518 7 0.071115 0.154585 0.224702
25314 6 0.0679185 0.169985 0.227666
25297 8 0.0513728 0.1754 0.24103
22757 7 0.0969149 0.179019 0.239371
22718 6 0.108727 0.183448 0.245097
25378 6 0.0244463 0.23007 0.216094
22830 7 0.0713186 0.223888 0.224911
25345 7 0.0371606 0.230683 0.221508
25346 7 0.0162262 0.216313 0.217321
22795 7 0.109731 0.244964 0.213327
22829 7 0.0606796 0.226151 0.235757
22751 3 0.124848 0.24025 0.241509
14847 7 0.449736 -0.000501002 0.241818
22756 6 0.119963 0.173403 0.21593
22706 1 0.12719 0.171485 0.19348
22758 7 0.121564 0.181324 0.240466
20168 7 0.208465 0.240699 0.212659
22760 7 0.136383 0.123863 0.246458
22825 6 0.125359 0.23969 0.214356
22646 5 0.195645 0.140518 0.187989
22796 7 0.128377 0.237315 0.222059
22719 7 0.1253 0.179086 0.222679
22713 5 0.1953 0.202318 0.190517
20103 1 0.231549 0.169245 0.190536
22716 5 0.155531 0.147516 0.193335
20154 1 0.227886 0.23236 0.190756
22724 1 0.132712 0.234725 0.195993
22722 7 0.151576 0.191146 0.239371
22645 4 0.176284 0.131736 0.205949
22712 5 0.157258 0.201438 0.196872
22639 2 0.179 0.147371 0.197053
22708 2 0.180567 0.196392 0.200088
22711 4 0.183272 0.170726 0.200472
22710 3 0.186223 0.205116 0.212223
22932 9 0.189519 0.192049 0.217008
20167 7 0.22081 0.218278 0.212821
20204 6 0.223218 0.233757 0.210878
20092 3 0.23679 0.170962 0.210014
22721 7 0.156533 0.168162 0.239196
20406 9 0.223796 0.164812 0.214847
22966 7 0.173944 0.217972 0.223235
22745 8 0.155924 0.238138 0.240357
20166 6 0.194205 0.170582 0.226591
20206 7 0.181185 0.170134 0.231367
22755 6 0.150332 0.179082 0.234367
20205 7 0.191055 0.157886 0.222159
22762 6 0.171747 0.232788 0.227592
22679 3 0.166118 0.138131 0.24801
22920 9 0.171762 0.123615 0.249168
20169 7 0.251321 0.22623 0.234851
22955 7 0.170765 0.24347 0.220957
20165 6 0.214871 0.240851 0.242483
20208 7 0.204627 0.240735 0.236422
22747 5 0.161537 0.216869 0.250023
17549 7 0.289903 0.131465 0.221125
17861 7 0.36882 0.246346 0.234171
20170 7 0.253462 0.226518 0.222868
20203 6 0.26061 0.221096 0.229373
20100 7 0.253047 0.125217 0.237987
20091 5 0.297875 0.139584 0.188074
17827 9 0.3689 0.130834 0.212373
17504 3 0.361468 0.142978 0.247102
20094 5 0.296767 0.201798 0.189358
20090 5 0.258674 0.137549 0.190624
17531 1 0.327647 0.171894 0.190813
17551 1 0.330826 0.2318 0.189827
17538 5 0.357493 0.198208 0.191656
17545 6 0.327781 0.238967 0.245246
20164 5 0.257294 0.204544 0.192471
20368 9 0.270091 0.207675 0.24355
17543 5 0.357286 0.140035 0.194316
20085 2 0.280612 0.133499 0.196316
20086 8 0.266639 0.169923 0.214514
20087 2 0.279195 0.208551 0.197537
20159 4 0.282057 0.233787 0.199058
20088 5 0.275888 0.14861 0.206307
20093 4 0.276979 0.193575 0.207091
17547 7 0.333986 0.188669 0.210087
17540 3 0.332949 0.233043 0.210002
17579 6 0.327576 0.174305 0.211343
17546 7 0.314751 0.177132 0.215832
20136 6 0.281457 0.168939 0.229148
20413 7 0.27785 0.183844 0.233418
20402 7 0.27349 0.156378 0.233826
17413 7 0.351963 -0.00212259 0.144198
17580 7 0.336604 0.226569 0.247966
17534 8 0.363489 0.235833 0.213613
17571 3 0.366076 0.208252 0.246087
17815 9 0.372343 0.195647 0.241958
17854 9 0.320532 0.240052 0.214624
17814 9 0.362456 0.15581 0.242869
17539 5 0.398273 0.205976 0.189496
14997 7 0.394103 0.183255 0.231505
14910 3 0.482344 0.147529 0.210038
14916 5 0.494847 0.202514 0.18922
17584 6 0.375691 0.238863 0.227608
12353 7 0.490215 0.184739 0.243157
14947 3 0.469318 0.145425 0.245257
14905 7 0.386691 0.126435 0.244341
17461 2 0.37999 0.147175 0.198724
14920 7 0.429501 0.178444 0.219973
12406 7 0.491512 0.247246 0.243153
15275 9 0.489207 0.197761 0.21128
17468 5 0.396662 0.138862 0.190018
14992 6 0.417878 0.243075 0.244076
14956 6 0.434168 0.173376 0.212984
17533 2 0.379786 0.197156 0.196869
15274 9 0.470556 0.157779 0.211239
14921 7 0.447279 0.182931 0.212137
14915 3 0.474983 0.20053 0.208554
15026 6 0.378921 0.180035 0.229051
14958 7 0.433461 0.162887 0.246427
14913 5 0.496276 0.141477 0.191243
14952 3 0.467316 0.205651 0.24599
17467 3 0.382573 0.132884 0.209753
14991 5 0.454483 0.201486 0.192273
14985 4 0.479007 0.235075 0.19631
17537 4 0.38253 0.172472 0.199724
14925 1 0.430561 0.172793 0.191542
14979 1 0.424061 0.234818 0.188925
14909 2 0.476466 0.209316 0.196898
15261 9 0.481824 0.154275 0.245408
17536 5 0.374642 0.213257 0.206304
14996 7 0.376165 0.186267 0.222298
17850 7 0.380071 0.222436 0.231751
14919 6 0.42543 0.175931 0.243218
22738 7 0.148895 0.2521 0.147303
17617 7 0.285063 0.247084 0.228272
15245 9 0.446544 0.00201568 0.159328
25459 9 0.0360919 0.248334 0.155423
25234 6 0.0316571 3.62695e-05 0.217175
20008 7 0.216243 0.00487891 0.239384
17512 7 0.276553 0.000942673 0.223769
14875 4 0.458382 0.0707168 0.250153
25299 5 0.0592858 0.150597 0.248289
20367 9 0.265408 0.166143 0.248925
25304 4 0.0596592 0.197843 0.249368
25178 3 0.0281867 0.0591953 0.304263
25245 3 0.0298598 0.110844 0.304013
25251 5 0.0143995 0.0511352 0.284765
25246 4 0.0367945 0.084265 0.289081
25243 2 0.0363617 0.108933 0.291465
25224 1 0.0869514 0.0831289 0.288376
25179 5 0.0565147 0.0504951 0.290521
25173 2 0.0337956 0.059551 0.292183
25170 1 0.0809916 0.0208284 0.289214
25232 5 0.0797742 0.0830407 0.268828
25230 5 0.0781595 0.020948 0.270473
22671 1 0.109143 0.0513996 0.26838
25171 1 0.0119816 0.0517764 0.263615
25229 5 0.0382022 0.0219862 0.263496
25294 1 0.0078731 0.115048 0.264452
25306 5 0.0366356 0.0834623 0.262543
25226 2 0.06104 0.0878268 0.260033
25225 2 0.0619062 0.014165 0.26132
25496 9 0.032673 0.0726903 0.307879
25288 6 0.0960759 0.0833359 0.308032
25218 6 0.0912675 0.0272837 0.308722
25497 9 0.0148925 0.107833 0.304755
22619 1 0.114355 0.113134 0.264703
25300 4 0.0631631 0.113401 0.257975
25257 7 0.107125 0.0952296 0.307666
25247 5 0.0160669 0.117193 0.285138
25248 5 0.0592506 0.118204 0.288963
22699 5 0.116591 0.113978 0.28548
22624 5 0.115372 0.0542645 0.290154
25256 7 0.10544 0.0709647 0.307153
25184 7 0.107322 0.0310118 0.308644
1930 7 0.00379765 0.0169492 0.308944
25471 9 0.0628526 0.0401932 0.250049
25227 3 0.0703067 0.0264732 0.251261
24744 7 0.00196019 0.148879 0.418377
1931 7 0.00132793 0.0413997 0.305347
16930 1 0.418431 0.240318 0.466484
22626 3 0.126573 0.119186 0.304283
22622 3 0.132425 0.0516842 0.308551
22623 4 0.13537 0.0207588 0.294491
22681 5 0.137551 0.026514 0.266231
22620 2 0.135194 0.0454475 0.296247
19999 4 0.22432 0.0398181 0.300387
19993 2 0.231797 0.0572245 0.292975
20068 2 0.233983 0.107772 0.294947
20071 4 0.229781 0.0818878 0.297174
22625 5 0.158552 0.0538664 0.29218
22627 5 0.157688 0.112884 0.290618
22618 1 0.181578 0.0828091 0.288494
20076 5 0.217206 0.0546392 0.283429
22600 1 0.189635 0.020039 0.288678
22609 5 0.178705 0.0155749 0.269975
22678 5 0.179501 0.0832846 0.267979
19990 1 0.214459 0.0516551 0.264745
22677 5 0.138713 0.0800406 0.263229
20129 5 0.238289 0.0865344 0.265442
20053 5 0.237438 0.018998 0.262383
22602 2 0.161567 0.0241026 0.261602
22673 2 0.162469 0.0738387 0.260172
22676 4 0.165047 0.0484815 0.258684
19998 3 0.190147 0.0165577 0.306842
19992 8 0.220167 0.0176837 0.309143
20119 1 0.208151 0.114923 0.267881
20072 5 0.216636 0.115385 0.286159
22621 2 0.13449 0.122349 0.292628
20070 3 0.230101 0.122143 0.304846
22608 3 0.163378 0.00769225 0.252067
22943 9 0.147614 0.0512361 0.311406
20391 9 0.23983 0.11828 0.31048
20000 5 0.255866 0.0527702 0.288893
17448 5 0.357033 0.115778 0.29058
17440 8 0.322261 0.082313 0.309808
17446 3 0.2912 0.083571 0.308002
17442 5 0.327373 0.0591842 0.301099
17447 4 0.324579 0.104625 0.301402
17443 4 0.332863 0.0199396 0.293842
17439 2 0.33415 0.0450881 0.291658
20048 1 0.287077 0.0823132 0.290081
19989 1 0.281091 0.0214861 0.286992
17445 5 0.35666 0.053155 0.288551
17444 5 0.316394 0.050291 0.283307
20057 5 0.278609 0.0832613 0.268866
17495 1 0.30688 0.0529921 0.265788
17506 5 0.335014 0.0275076 0.264934
20054 5 0.277716 0.0203713 0.266228
17438 1 0.312607 0.114167 0.265669
17501 5 0.337496 0.0845985 0.261882
17421 2 0.35816 0.0279613 0.259788
20050 2 0.260862 0.092638 0.261784
20049 2 0.26046 0.0115768 0.258555
17497 2 0.358939 0.0783774 0.257032
20040 6 0.277469 0.0168871 0.306666
17500 4 0.360223 0.0527487 0.257018
20073 5 0.257735 0.111691 0.291886
20124 4 0.260502 0.117066 0.260887
17524 5 0.315609 0.117149 0.283447
17441 2 0.332194 0.12027 0.292781
17427 4 0.355181 0.0100697 0.251202
17857 9 0.281265 0.0870716 0.315101
20082 7 0.302727 0.133779 0.30871
17455 7 0.330536 0.0323184 0.314628
20005 7 0.267011 0.00723134 0.303025
1861 9 0.00646495 0.178636 0.421489
17502 5 0.37519 0.0834881 0.266375
17428 5 0.377445 0.0209132 0.266913
17437 1 0.379563 0.0829865 0.285554
15286 9 0.428322 0.0616328 0.312446
14822 3 0.425346 0.0503767 0.30697
14891 4 0.429633 0.0856819 0.296731
14817 2 0.433102 0.0593285 0.295789
14887 2 0.430919 0.108505 0.291164
14823 5 0.455295 0.050228 0.291584
17418 1 0.386779 0.0188527 0.287057
14893 5 0.454476 0.113 0.287832
14897 5 0.415651 0.0525228 0.287325
14892 5 0.413247 0.111187 0.282319
14866 1 0.483964 0.0833387 0.287022
14814 1 0.478287 0.0192399 0.288513
14873 5 0.474833 0.0183442 0.268251
14876 5 0.478351 0.0789188 0.266927
14815 1 0.411541 0.0506376 0.267336
14943 1 0.407605 0.112494 0.264474
14954 5 0.437297 0.0866444 0.264397
17412 6 0.385916 0.019353 0.307734
14869 2 0.460071 0.0874294 0.259076
14872 5 0.433369 0.0107369 0.26578
14867 2 0.456778 0.00923504 0.260946
14948 4 0.464377 0.112248 0.25577
14860 6 0.489528 0.0854471 0.308075
14890 5 0.427591 0.12526 0.29996
17379 7 0.39832 0.0299501 0.309514
17380 7 0.393793 0.00637291 0.308879
14870 5 0.454617 0.0245919 0.251202
24565 7 0.066027 0.00293519 0.402275
25255 7 0.0856657 0.121921 0.309553
25254 7 0.0679319 0.139217 0.313114
25296 2 0.0604634 0.138208 0.258945
25241 1 0.0840361 0.147767 0.288316
25249 3 0.0209382 0.172695 0.301592
25360 6 0.0802372 0.191439 0.304813
25320 4 0.0317794 0.207255 0.291264
25317 2 0.0322545 0.231597 0.28979
25295 1 0.0876552 0.208705 0.286344
25250 5 0.0556482 0.173899 0.290253
25244 2 0.0309848 0.181963 0.291314
25325 5 0.0145256 0.176298 0.282325
25302 5 0.0802809 0.146241 0.265782
25305 5 0.078054 0.210059 0.267617
22742 1 0.107159 0.176699 0.264757
25301 5 0.0374943 0.147324 0.262378
25242 1 0.0124411 0.176714 0.262473
25376 5 0.037618 0.215663 0.262456
25298 2 0.0611379 0.215963 0.258717
25289 6 0.0806313 0.136731 0.307867
25366 1 0.0076516 0.239686 0.260518
25498 9 0.0165496 0.183924 0.307101
25371 4 0.0647171 0.239198 0.253702
22690 1 0.113205 0.239515 0.260988
22773 5 0.116836 0.242837 0.279662
25322 5 0.0557695 0.239525 0.286247
25321 5 0.0127309 0.238959 0.282691
22695 5 0.117877 0.183397 0.285582
25319 3 0.0278837 0.244372 0.300446
25499 9 0.019829 0.235291 0.305541
25330 7 0.0695481 0.180808 0.301324
25331 7 0.0937877 0.183825 0.306223
22697 3 0.118541 0.236558 0.299339
19557 5 0.293395 0.248514 0.430977
22693 3 0.124124 0.174409 0.304307
22946 9 0.106514 0.245671 0.301472
22944 9 0.115573 0.130301 0.306135
22952 7 0.133632 0.210955 0.309737
22945 9 0.134869 0.179253 0.309344
22694 4 0.134283 0.147812 0.290034
22691 2 0.134266 0.172655 0.292779
22748 4 0.163577 0.175349 0.256197
22674 2 0.161812 0.150705 0.258727
22754 5 0.137118 0.145904 0.261848
20202 5 0.237939 0.205861 0.262798
22672 1 0.185772 0.147496 0.288521
20142 4 0.231873 0.210999 0.29174
20147 5 0.216596 0.173448 0.287228
22696 5 0.157853 0.182101 0.29194
20074 3 0.230549 0.184246 0.306424
20069 2 0.233701 0.185641 0.293633
22689 1 0.181435 0.210336 0.286923
20392 9 0.215847 0.178219 0.307345
20139 2 0.23194 0.236267 0.292126
20067 1 0.2124 0.176396 0.265956
22680 5 0.17884 0.144227 0.266852
22750 5 0.178999 0.205758 0.268453
22749 5 0.138685 0.205836 0.263267
20125 5 0.238313 0.150068 0.266758
22744 2 0.161569 0.200688 0.259221
22737 6 0.188494 0.217963 0.307353
22736 6 0.19309 0.153052 0.308345
22698 5 0.155555 0.240957 0.288238
20190 1 0.208231 0.238604 0.263197
20141 3 0.227222 0.245723 0.303405
20143 5 0.214729 0.242257 0.283927
22703 7 0.20377 0.21994 0.305029
22692 2 0.131751 0.24658 0.28983
22704 7 0.205237 0.141927 0.307608
22187 6 0.126048 0.249305 0.395434
20144 5 0.256044 0.243467 0.289638
17572 4 0.366739 0.176754 0.257877
20126 5 0.27892 0.149766 0.267554
20075 5 0.256128 0.17533 0.291131
20066 1 0.280866 0.145597 0.288827
17516 2 0.334705 0.170725 0.295255
17518 3 0.332135 0.180922 0.30664
20079 7 0.307956 0.200151 0.306385
20114 6 0.29398 0.209882 0.307652
17519 4 0.331713 0.144737 0.295658
17521 5 0.358513 0.176816 0.291755
20120 1 0.285973 0.207781 0.288334
17520 5 0.316382 0.17885 0.288245
17595 5 0.314821 0.236306 0.285918
17567 1 0.310093 0.175422 0.267676
20128 5 0.278546 0.207262 0.268369
17577 5 0.338376 0.150002 0.263968
17573 5 0.337771 0.206707 0.260411
17498 2 0.36118 0.150838 0.259277
20121 2 0.259221 0.142436 0.260911
17569 2 0.361401 0.201205 0.25797
20122 2 0.261854 0.210991 0.259513
20196 4 0.265261 0.236484 0.257572
20113 6 0.285592 0.136447 0.309217
17523 5 0.356632 0.239657 0.286778
17515 1 0.313107 0.237433 0.264743
17522 3 0.33533 0.239545 0.303817
17517 2 0.333928 0.246678 0.291823
17840 9 0.322433 0.231447 0.306032
20081 7 0.278302 0.123332 0.30738
17839 9 0.325344 0.169872 0.311184
17529 7 0.366143 0.19605 0.304993
17530 7 0.366737 0.220418 0.306416
17561 6 0.376986 0.208083 0.306659
14358 7 0.470044 0.240327 0.411285
20080 7 0.286161 0.20437 0.314659
15305 9 0.378556 0.144456 0.311484
15020 4 0.4637 0.236696 0.259886
17505 5 0.380402 0.143615 0.266053
17574 5 0.377596 0.212989 0.26483
17514 1 0.381401 0.209831 0.285783
14945 2 0.461959 0.138194 0.256442
14886 1 0.415244 0.176277 0.263512
14894 3 0.391203 0.147943 0.306355
14972 5 0.415416 0.180172 0.280722
14896 5 0.455489 0.176956 0.287233
14888 8 0.422038 0.1472 0.308939
12342 3 0.48915 0.205707 0.305389
14895 4 0.428008 0.168182 0.29937
14964 2 0.434129 0.233215 0.292086
14967 4 0.43027 0.20759 0.294399
14889 2 0.431626 0.183159 0.289676
17496 1 0.386383 0.146076 0.287098
14944 1 0.488449 0.207661 0.286465
14885 1 0.48088 0.145536 0.285291
14953 5 0.481699 0.204399 0.265142
14936 6 0.484332 0.139313 0.305655
14950 5 0.477587 0.14387 0.265388
15025 5 0.439459 0.203618 0.260745
14949 5 0.437979 0.146476 0.258176
14946 2 0.462654 0.21131 0.257962
14969 5 0.457649 0.234064 0.287972
15015 1 0.41008 0.237296 0.263542
14968 5 0.417469 0.241891 0.283683
14966 3 0.435359 0.243087 0.303653
14900 7 0.472644 0.141051 0.311391
12753 9 0.476948 0.209896 0.310423
24690 7 0.0963052 0.247139 0.48583
25183 7 0.087028 0.0269071 0.316025
24544 6 0.0902027 0.0159763 0.336287
24654 7 0.109161 0.0881123 0.333708
24655 7 0.0876356 0.0849745 0.329069
24614 6 0.0948084 0.081607 0.335343
24820 9 0.026642 0.0494721 0.336153
24550 1 0.0903373 0.083118 0.356545
24571 2 0.0383335 0.0576601 0.351261
24576 3 0.0320068 0.0413032 0.34214
24577 5 0.0616758 0.0508687 0.354719
24639 2 0.036874 0.108044 0.348886
24643 4 0.0383632 0.0829423 0.347725
24644 5 0.0204194 0.11319 0.358316
24645 5 0.0606304 0.115473 0.352252
24649 5 0.0215568 0.0536039 0.359973
24568 1 0.0856653 0.0197333 0.357253
22022 5 0.12095 0.0532412 0.356217
22097 5 0.122654 0.112751 0.356587
24582 7 0.0812985 0.00434725 0.333263
24581 7 0.105198 0.00949158 0.335672
24819 9 0.0316496 0.0102507 0.341012
24642 5 0.0310653 0.122316 0.33981
24557 5 0.082039 0.0193743 0.374953
24560 5 0.0833795 0.0822024 0.375539
20409 9 0.177584 0.00880639 0.311139
22267 9 0.120232 0.0481479 0.335524
22031 7 0.202716 0.00533559 0.335417
22268 9 0.149224 0.103996 0.334017
22665 6 0.170532 0.056384 0.321084
22634 7 0.158719 0.0542792 0.326131
22020 3 0.136007 0.0474789 0.336991
22024 3 0.1359 0.10864 0.337248
22032 7 0.205335 0.0296957 0.335421
22021 4 0.136778 0.0198223 0.352888
20065 6 0.237506 0.0277113 0.321571
22631 7 0.179488 0.0795978 0.329743
22632 7 0.182308 0.103292 0.333455
19714 9 0.220175 0.0685063 0.336995
22666 6 0.188387 0.0890603 0.334733
19468 3 0.234823 0.109507 0.337294
19398 3 0.227403 0.0558271 0.339774
19466 2 0.239643 0.108648 0.349681
19469 4 0.237953 0.0837388 0.352592
19393 2 0.238264 0.058862 0.350804
19470 5 0.218956 0.117758 0.355906
19474 5 0.220494 0.0499281 0.358993
22016 1 0.187805 0.0855166 0.35497
22018 2 0.139557 0.0447916 0.349341
22023 5 0.163104 0.0542475 0.353259