ITEM: TIMESTEP
676000
ITEM: NUMBER OF ATOMS
25520
ITEM: BOX BOUNDS pp pp pp
-3.8990420164797157e-01 6.0088447791650758e+01
-1.9455540744467894e+00 5.9115839348445220e+01
-1.2646370907553806e+01 1.1192210331356475e+02
ITEM: ATOMS id type xs ys zs
25182 6 0.0768573 0.0276357 0.153521
25252 6 0.102546 0.0812437 0.151398
25214 3 0.0297362 0.046683 0.159797
25287 5 0.0291598 0.057975 0.179342
25283 5 0.069287 0.117534 0.17179
25282 5 0.0282656 0.116683 0.176852
25281 4 0.0429408 0.086131 0.165499
25277 2 0.0456129 0.111336 0.16832
25215 5 0.0669181 0.0556698 0.169374
25209 2 0.0423116 0.0612352 0.168598
25188 1 0.0996451 0.087242 0.172158
25458 9 0.027051 0.0572502 0.153715
25206 1 0.0948309 0.0257297 0.172008
25293 7 0.0925067 0.0767437 0.1463
25220 7 0.0658144 0.0154239 0.153619
25219 7 0.0677499 0.0402755 0.15743
25292 7 0.114729 0.0716923 0.149418
2433 1 0.00167324 0.0202663 0.176959
22906 9 0.127424 0.108269 0.154044
22735 5 0.128866 0.118609 0.173615
22660 5 0.128542 0.0592142 0.171434
22905 9 0.145604 0.0272855 0.152411
22662 3 0.142377 0.11445 0.154252
22658 3 0.146273 0.0436707 0.153165
22656 2 0.147926 0.0491603 0.165432
20112 5 0.229363 0.0532771 0.173633
22663 5 0.169294 0.120214 0.168838
22654 1 0.196042 0.0886979 0.169293
22661 5 0.170845 0.0583931 0.167708
22659 4 0.148048 0.0252749 0.169292
22563 1 0.200638 0.0239323 0.173463
22629 6 0.210592 0.022186 0.153377
22630 6 0.203417 0.0920193 0.14966
22667 7 0.210087 0.082544 0.144177
22668 7 0.21616 0.101071 0.151779
20108 5 0.231568 0.117097 0.172331
20106 3 0.245495 0.120447 0.153724
22670 7 0.219828 0.0363459 0.154585
22669 7 0.220916 0.010229 0.15146
20107 4 0.251365 0.0862813 0.165793
20104 2 0.250041 0.111158 0.165147
20031 2 0.248834 0.0608864 0.166561
22657 2 0.146064 0.125713 0.165395
20036 3 0.247302 0.0508383 0.155145
20352 9 0.253527 0.0616327 0.149874
22518 7 0.259471 0.0924881 0.14476
22482 6 0.267862 0.0798194 0.142408
22517 7 0.279423 0.0803758 0.147995
20118 7 0.319694 0.0692404 0.151918
20117 7 0.316046 0.0933029 0.155377
20077 6 0.307731 0.0790795 0.154621
17480 3 0.341593 0.0461948 0.157528
17799 9 0.353731 0.0475697 0.15285
17478 2 0.347237 0.0454377 0.169614
20109 5 0.273376 0.118413 0.168043
17482 5 0.331718 0.0588774 0.176793
20037 5 0.270569 0.0529628 0.170273
20011 1 0.298201 0.0868095 0.174622
20028 1 0.294874 0.0227543 0.173356
17481 4 0.344656 0.0210157 0.173184
17484 3 0.33727 0.116791 0.155694
20003 6 0.291831 0.0245498 0.153106
20042 7 0.278521 0.0335077 0.15293
17560 5 0.330062 0.118278 0.175299
20041 7 0.299572 0.0313749 0.147427
17483 5 0.371197 0.0527991 0.172817
17485 5 0.370957 0.117059 0.17036
17479 2 0.347424 0.124637 0.166632
17798 9 0.343445 0.013107 0.155339
14848 1 0.494149 0.0223032 0.177814
17490 7 0.398315 0.0995519 0.150929
17489 7 0.41842 0.0933679 0.157049
17451 6 0.403348 0.0880269 0.155368
14856 3 0.436929 0.0443419 0.161238
15246 9 0.430374 0.0536593 0.155918
14929 4 0.444635 0.0844305 0.168463
14926 2 0.448546 0.108834 0.170371
14851 2 0.445021 0.0590947 0.170964
14931 5 0.47303 0.113148 0.172571
14857 5 0.469257 0.0549204 0.17373
17476 1 0.394269 0.0856495 0.175097
14934 5 0.430249 0.053982 0.180332
14930 5 0.432576 0.115449 0.178894
17384 1 0.399764 0.021711 0.176673
17450 6 0.400296 0.0190154 0.155365
17492 7 0.398619 0.0074261 0.150243
14862 7 0.472572 0.0112524 0.155676
17491 7 0.415627 0.023402 0.156085
14928 3 0.44092 0.12057 0.159922
14826 6 0.482042 0.0230005 0.157836
14861 7 0.469951 0.0337622 0.15907
14925 1 0.425445 0.180339 0.198314
25280 5 0.0381085 0.129277 0.160644
25291 7 0.0923088 0.162552 0.147734
25290 7 0.114209 0.15559 0.154142
2033 7 0.039154 0.137598 0.133968
25253 6 0.0984534 0.151385 0.152763
2032 7 0.0435597 0.163977 0.135269
1995 6 0.0314101 0.151344 0.137504
25275 1 0.0925817 0.150729 0.173526
25278 8 0.0257895 0.150097 0.152912
22957 9 0.0926879 0.232488 0.155106
22732 3 0.100825 0.217136 0.156037
25285 4 0.0348163 0.17146 0.161354
25359 5 0.0285569 0.182906 0.179749
25356 5 0.0682633 0.243546 0.17183
25354 4 0.0416315 0.211958 0.166975
25351 2 0.0438249 0.236859 0.168701
25286 5 0.0668468 0.180381 0.172258
25279 2 0.0428257 0.187174 0.169808
25259 1 0.0972916 0.214184 0.174322
25355 5 0.0271643 0.244956 0.177101
25394 6 0.0722816 0.180105 0.143953
25432 7 0.0633534 0.180298 0.150983
25433 7 0.0807674 0.19325 0.145748
2103 7 0.00479697 0.235354 0.155739
25353 3 0.0365004 0.246364 0.157058
25459 9 0.0415109 0.236067 0.152066
22740 7 0.193592 0.173496 0.153049
22741 7 0.177369 0.155871 0.156327
1962 7 0.151341 0.203439 0.133865
22726 8 0.129527 0.213889 0.151067
1963 7 0.145381 0.22862 0.133473
1927 6 0.137647 0.214355 0.135541
22730 5 0.12796 0.179543 0.17591
22700 6 0.193027 0.157912 0.15452
22636 1 0.199407 0.148529 0.17337
22729 4 0.146304 0.151427 0.163596
22733 4 0.136451 0.236827 0.160056
20189 7 0.19973 0.218421 0.148094
20148 6 0.202289 0.205843 0.153515
22728 5 0.138709 0.19222 0.158488
22725 2 0.145382 0.175742 0.16677
20178 5 0.229247 0.23723 0.175036
20183 5 0.229666 0.18294 0.175019
22723 1 0.192555 0.211498 0.173512
22731 5 0.168152 0.180779 0.17213
22807 5 0.12942 0.245567 0.178909
20188 7 0.218268 0.206334 0.153388
22734 5 0.168368 0.24233 0.17092
20177 4 0.246909 0.210019 0.161928
20354 9 0.228959 0.17034 0.154184
20353 9 0.247974 0.136428 0.153159
20110 3 0.243707 0.168371 0.157226
20105 2 0.248395 0.184408 0.16608
20173 2 0.246855 0.23387 0.166076
22727 2 0.144598 0.250598 0.169343
17800 9 0.336247 0.128406 0.150886
17555 4 0.346183 0.149173 0.167368
20102 1 0.297314 0.149707 0.173806
17554 3 0.34986 0.187059 0.158174
17801 9 0.345146 0.202472 0.158598
17558 3 0.33799 0.233884 0.160071
17552 2 0.348927 0.174553 0.168757
17556 5 0.328982 0.1828 0.17473
20111 5 0.271744 0.180972 0.170523
20084 1 0.29943 0.211778 0.174828
20179 5 0.27062 0.238121 0.170523
17631 5 0.332064 0.241998 0.178456
17559 5 0.371647 0.240165 0.172498
17557 5 0.37026 0.181188 0.174388
17553 2 0.348873 0.247068 0.169634
17802 9 0.342281 0.239676 0.153507
14958 7 0.391746 0.182314 0.239483
17563 7 0.385094 0.191629 0.155299
14924 1 0.495632 0.146246 0.175078
15247 9 0.445328 0.136593 0.159458
17566 7 0.381862 0.162659 0.159043
17565 7 0.398321 0.162778 0.149703
17564 7 0.395041 0.207086 0.147448
14938 7 0.465043 0.211686 0.14551
14937 7 0.446472 0.19539 0.147192
17525 6 0.394683 0.153907 0.156271
17459 1 0.399579 0.146947 0.175534
17526 6 0.396578 0.202859 0.155022
14899 6 0.449861 0.20766 0.142796
15248 9 0.424908 0.172545 0.158629
15002 3 0.444675 0.240739 0.156538
14932 3 0.440603 0.173255 0.159169
15000 2 0.44681 0.234026 0.168366
15003 4 0.447671 0.209394 0.168182
14927 2 0.448265 0.183851 0.170007
15005 5 0.469442 0.243582 0.171734
14933 5 0.471007 0.178379 0.173188
15004 5 0.426204 0.24202 0.174219
17550 1 0.395371 0.210003 0.175556
15008 5 0.429061 0.1794 0.177697
15249 9 0.442396 0.226745 0.151712
25235 6 0.0820687 0.00118323 0.229234
25236 7 0.00593998 0.0313249 0.243588
25471 9 0.0743331 0.0153354 0.246367
25198 5 0.0928036 0.0884487 0.190967
25195 5 0.09298 0.0252133 0.192697
25268 5 0.0538884 0.0870132 0.19711
25258 1 0.0250538 0.11671 0.196342
25207 1 0.0262699 0.0561092 0.198335
25191 2 0.0781179 0.0932058 0.200357
25263 4 0.0790489 0.117665 0.202852
25197 4 0.0793923 0.0786489 0.209637
25192 5 0.0731948 0.0339835 0.209229
25196 3 0.0372803 0.0592093 0.216209
25190 8 0.0673961 0.0571858 0.21743
25510 9 0.0257948 0.056394 0.222517
25517 7 0.0909437 0.0722529 0.233352
25240 6 0.0765055 0.0622982 0.232038
22685 7 0.0835841 0.104276 0.219709
25506 7 0.0643974 0.0681744 0.238229
22649 6 0.0859504 0.114026 0.226172
25194 5 0.0506027 0.0148718 0.197062
25189 2 0.0746188 0.0168393 0.200353
25308 6 0.0222925 0.112203 0.21631
25472 9 0.0554743 0.100551 0.243972
25272 7 0.0319787 0.113015 0.222947
25201 6 0.0055795 0.0466923 0.243461
22687 7 0.110551 0.0592184 0.243624
25271 7 0.0101511 0.101764 0.218651
22684 7 0.0710389 0.114273 0.229947
22635 1 0.123358 0.0550104 0.193208
22760 7 0.103505 0.122966 0.239783
25309 7 0.0256433 0.118335 0.239871
22958 9 0.120175 0.115829 0.218459
22686 7 0.0894855 0.0503807 0.248774
25202 7 0.0803659 0.0026146 0.221477
17475 7 0.297719 0.00328539 0.220611
25205 7 0.00694661 0.00482312 0.221014
25270 6 0.0407952 0.121851 0.237862
22717 6 0.107085 0.125117 0.247189
22683 6 0.125911 0.051634 0.214243
14995 7 0.41016 0.244484 0.221589
22655 1 0.126192 0.116791 0.193106
22613 7 0.126924 0.0112643 0.243578
14881 7 0.413629 -0.00668326 0.240087
22918 9 0.158083 0.0229896 0.248509
22651 7 0.117428 0.065024 0.214748
22650 7 0.128071 0.0476944 0.221445
20096 6 0.200668 0.0634846 0.2481
22643 5 0.195468 0.0863418 0.190797
20062 7 0.139959 0.0797331 0.241963
20023 6 0.134084 0.0707639 0.236126
20134 7 0.208766 0.0674778 0.241696
20061 7 0.148446 0.067453 0.231416
22572 5 0.192909 0.0204727 0.193642
20083 1 0.221234 0.114493 0.191993
20029 1 0.227365 0.0552477 0.194669
22642 5 0.153067 0.0801527 0.194298
20063 7 0.173595 0.0490539 0.220957
22637 2 0.176874 0.0794565 0.198231
22641 4 0.179292 0.0556938 0.201248
22565 2 0.175544 0.0296369 0.201651
22640 5 0.174714 0.0956722 0.207458
20060 6 0.233893 0.0534648 0.214926
20022 6 0.173096 0.0632411 0.224736
20064 7 0.174803 0.0740243 0.219137
22647 5 0.153132 0.0219989 0.197526
22571 3 0.179949 0.0220881 0.213343
22638 8 0.162533 0.1177 0.214707
22644 3 0.132365 0.114785 0.212338
22965 7 0.167273 0.100923 0.234268
22577 7 0.142204 0.0389071 0.233067
20025 7 0.241345 0.0389183 0.213329
22688 6 0.169593 0.11517 0.230124
22612 6 0.143774 0.0224868 0.232915
22576 7 0.158761 0.0185201 0.230255
20024 7 0.224269 0.0480616 0.220877
22931 9 0.192162 0.0129255 0.213749
20130 6 0.211058 0.0948784 0.228082
17471 6 0.207188 0.0249617 0.233096
17510 7 0.195363 0.0262706 0.227852
17509 7 0.20239 0.0357479 0.238334
20100 7 0.202108 0.083546 0.22461
20101 7 0.20154 0.102682 0.232576
20098 7 0.216888 0.114605 0.217835
20008 7 0.201526 0.00261953 0.242246
20133 7 0.204401 0.125205 0.241659
14985 4 0.477043 0.239851 0.204711
17549 7 0.248415 0.106277 0.230151
12291 6 0.440264 0.159533 0.230691
20135 7 0.187312 0.0706006 0.246208
17436 6 0.355374 0.0010512 0.230275
20016 5 0.251009 0.028471 0.195284
20095 5 0.252474 0.0877271 0.197566
20366 9 0.261874 0.0929665 0.245956
17511 7 0.268069 0.0127982 0.226432
17456 7 0.28393 0.0605992 0.248076
20020 5 0.290954 0.0843398 0.194024
20017 5 0.291264 0.0248547 0.193084
17477 1 0.326634 0.120563 0.195861
17458 1 0.322232 0.0546055 0.19551
17464 5 0.348946 0.091311 0.198851
20013 2 0.274616 0.0934994 0.202287
20379 9 0.262537 0.0742803 0.214899
20089 4 0.277326 0.118566 0.202513
20019 3 0.275762 0.0829598 0.213732
20378 9 0.275905 0.0434619 0.211013
17466 6 0.312919 0.0528359 0.215112
17493 7 0.30793 0.0382469 0.215373
17494 7 0.300337 0.0622879 0.215088
14960 7 0.325986 0.0752541 0.227868
14918 6 0.32626 0.0877864 0.232254
14959 7 0.314358 0.0860756 0.237437
17469 5 0.349534 0.0216684 0.201085
20014 3 0.275149 0.0275301 0.211532
20012 2 0.271791 0.0182743 0.19997
17503 6 0.298748 0.0564881 0.246015
17499 3 0.360423 0.0897435 0.246207
17457 7 0.297283 0.0463324 0.240092
17583 7 0.321269 0.125057 0.238214
17813 9 0.346488 0.0910214 0.242131
17860 7 0.366274 0.0137674 0.229113
17473 7 0.320517 0.106898 0.220515
17472 7 0.297668 0.11716 0.215336
14846 7 0.365286 0.0563182 0.237352
17508 6 0.314365 0.117716 0.21535
17578 6 0.262137 0.11042 0.23266
17460 2 0.371289 0.0827123 0.203133
17386 2 0.371979 0.0331644 0.203595
17548 7 0.272722 0.104304 0.227161
14878 6 0.374432 0.0568788 0.23092
17463 4 0.371593 0.0578361 0.203114
14847 7 0.37072 0.070405 0.227439
17512 7 0.264362 0.0102536 0.238295
17825 9 0.376437 0.0413114 0.22004
17826 9 0.37159 0.10756 0.214863
17462 3 0.372805 0.0918467 0.214949
17537 4 0.377676 0.179474 0.206316
17470 6 0.272614 0.00403142 0.232588
14992 6 0.406716 0.230255 0.247112
14880 7 0.424308 0.00420328 0.24951
14843 6 0.409568 0.00115674 0.246376
17391 3 0.379411 0.0273693 0.215176
15272 9 0.480079 0.0102536 0.221443
14840 5 0.493023 0.0837195 0.197441
17465 5 0.389654 0.0896353 0.195544
14906 1 0.423352 0.115497 0.197033
17392 5 0.390162 0.0233023 0.196021
14849 1 0.424324 0.0555667 0.199298
14917 5 0.450962 0.0832704 0.202766
14837 5 0.448914 0.0236163 0.202253
14911 4 0.47244 0.116623 0.203769
14834 2 0.474346 0.0918793 0.204845
14839 3 0.479869 0.0850169 0.216611
14955 6 0.411391 0.0683676 0.216115
15273 9 0.473867 0.0961053 0.221502
14922 7 0.395047 0.0677226 0.21735
14923 7 0.418311 0.0655922 0.223295
15308 7 0.451069 0.0582958 0.222617
14884 6 0.447697 0.0484531 0.229167
15297 7 0.457277 0.0344756 0.226876
15303 9 0.402545 0.062682 0.2395
14868 8 0.442693 0.0557641 0.24381
14835 3 0.480325 0.0244518 0.216633
14874 3 0.412062 0.0606522 0.246476
14833 2 0.472524 0.0173344 0.205201
14838 5 0.490914 0.0238669 0.197407
14941 7 0.412078 0.102803 0.218128
12366 6 0.457503 0.10906 0.233001
12408 7 0.457169 0.100196 0.239686
14905 7 0.387123 0.104839 0.243842
14951 6 0.398358 0.115919 0.244628
14844 7 0.400363 0.0067321 0.219102
12407 7 0.442166 0.111232 0.231226
20132 7 0.22068 0.131689 0.249826
25382 7 0.00372194 0.245642 0.236669
25345 7 0.00440931 0.234971 0.220054
25512 9 -0.00048687 0.181102 0.240278
22825 6 0.113712 0.241013 0.215161
22796 7 0.098305 0.240117 0.217325
25310 7 0.0472326 0.131754 0.243677
25484 9 0.0851726 0.142132 0.218437
25267 5 0.0925277 0.211412 0.195374
25265 5 0.0921341 0.15238 0.194084
25303 3 0.0111149 0.179234 0.246712
25260 2 0.0760075 0.14298 0.202018
25264 5 0.0514124 0.147166 0.199661
25332 1 0.0231456 0.242094 0.198542
25276 1 0.0280051 0.181855 0.197935
25342 5 0.054475 0.211244 0.198987
25337 4 0.0732009 0.245195 0.204148
25261 2 0.0755343 0.220137 0.203649
25266 3 0.0768613 0.208523 0.214796
25262 3 0.0814466 0.153041 0.21299
25485 9 0.0877215 0.197312 0.214754
22720 7 0.107003 0.169697 0.21595
25377 6 0.0189884 0.181001 0.218539
25507 7 0.0599513 0.19341 0.226346
25518 7 0.0605 0.166689 0.226011
25314 6 0.0626956 0.17977 0.231639
25297 8 0.04189 0.178142 0.243672
22751 3 0.114104 0.242621 0.2458
22758 7 0.118926 0.183357 0.243443
22718 6 0.102661 0.181735 0.246333
25348 7 0.00786941 0.19202 0.22101
25347 7 0.00974496 0.16792 0.217189
22830 7 0.0734802 0.229837 0.228028
22757 7 0.0932143 0.181557 0.240145
22756 6 0.120385 0.17781 0.215384
25378 6 0.0152969 0.247135 0.21924
22706 1 0.122622 0.182054 0.194369
22960 9 0.103293 0.242849 0.239692
12328 7 0.452736 0.158334 0.22608
20131 6 0.219464 0.125008 0.211447
20208 7 0.220959 0.250742 0.246931
22759 7 0.121769 0.130872 0.247715
22719 7 0.127994 0.175663 0.221906
22920 9 0.173897 0.141679 0.248754
20207 7 0.217247 0.229191 0.241249
22954 7 0.161261 0.128814 0.234731
20099 7 0.20552 0.135468 0.211634
22724 1 0.124957 0.245235 0.1977
20167 7 0.20482 0.227754 0.215351
22646 5 0.191033 0.147797 0.191416
22713 5 0.19295 0.213723 0.195545
20103 1 0.225243 0.180727 0.194031
22716 5 0.150939 0.145896 0.195877
20154 1 0.225648 0.238614 0.194171
22722 7 0.155997 0.17263 0.242682
22645 4 0.176512 0.142808 0.209697
22712 5 0.15022 0.208131 0.199097
22639 2 0.17394 0.154177 0.199297
22708 2 0.174071 0.203684 0.202107
22711 4 0.176148 0.178273 0.200423
22710 3 0.176342 0.208708 0.214129
22932 9 0.177724 0.194065 0.218195
20204 6 0.217558 0.237581 0.214936
20092 3 0.229851 0.177369 0.213477
22721 7 0.15063 0.19657 0.240016
20406 9 0.216355 0.171077 0.218061
22745 8 0.144362 0.242019 0.242908
20166 6 0.183897 0.172376 0.225425
20206 7 0.172256 0.174828 0.231173
22755 6 0.148288 0.181816 0.237341
20205 7 0.178159 0.159506 0.220894
22762 6 0.154139 0.236644 0.228247
20169 7 0.209518 0.16302 0.244114
20203 6 0.205504 0.178943 0.245043
22966 7 0.160573 0.220773 0.226109
20170 7 0.200336 0.182695 0.237805
20165 6 0.208804 0.240755 0.244869
20097 6 0.205117 0.128883 0.248572
17544 6 0.319014 0.134748 0.244069
20123 3 0.254132 0.148186 0.246646
20090 5 0.249225 0.143287 0.19379
20164 5 0.253046 0.215443 0.19682
17815 9 0.359015 0.238044 0.248185
17571 3 0.361457 0.222195 0.247747
17504 3 0.362682 0.150529 0.248923
20367 9 0.259583 0.135663 0.242589
17582 7 0.33414 0.13721 0.246895
17617 7 0.275169 0.219091 0.224376
17651 6 0.270205 0.232013 0.228802
20368 9 0.259756 0.21733 0.242239
20091 5 0.291439 0.148149 0.190616
20094 5 0.295899 0.207167 0.195969
17531 1 0.320496 0.180391 0.196552
17551 1 0.327773 0.240881 0.197753
17538 5 0.352463 0.21059 0.198586
17543 5 0.352087 0.151047 0.19866
20085 2 0.272934 0.143132 0.198474
20086 8 0.259038 0.175648 0.217627
20087 2 0.275368 0.215473 0.202949
20159 4 0.279372 0.240212 0.204209
20088 5 0.268653 0.157136 0.20801
20093 4 0.270164 0.201362 0.212799
17547 7 0.308273 0.173779 0.222421
17540 3 0.331921 0.243797 0.21639
17579 6 0.320156 0.176454 0.217424
17546 7 0.332912 0.175561 0.221761
20136 6 0.274351 0.174735 0.23111
20413 7 0.270276 0.185968 0.23785
20402 7 0.273683 0.157944 0.235009
17534 8 0.362153 0.243225 0.22018
14996 7 0.361074 0.190483 0.237109
17581 7 0.291679 0.240102 0.238462
17814 9 0.361664 0.160574 0.243038
17536 5 0.372218 0.217926 0.21346
20127 3 0.261789 0.207163 0.24868
15026 6 0.365778 0.180087 0.231977
14997 7 0.368348 0.188586 0.225268
17854 9 0.320417 0.25277 0.220618
17545 6 0.302561 0.244213 0.244235
17461 2 0.374408 0.154957 0.203644
17827 9 0.373647 0.151413 0.220486
17467 3 0.378263 0.142537 0.214192
17533 2 0.375222 0.204819 0.203647
9776 7 0.468091 0.229433 0.2255
14914 6 0.416498 0.117566 0.218361
14942 7 0.403873 0.126264 0.220203
15262 9 0.468204 0.230083 0.242539
9739 6 0.464448 0.242992 0.229362
15030 7 0.392229 0.223936 0.248562
15027 6 0.421992 0.240039 0.217212
14915 3 0.478326 0.203155 0.21499
14956 6 0.423054 0.192158 0.217462
14910 3 0.475969 0.151624 0.214538
17468 5 0.3934 0.148972 0.195745
12353 7 0.493032 0.197368 0.242803
14952 3 0.470887 0.219138 0.248167
14912 5 0.452865 0.152312 0.199445
14904 7 0.391223 0.129304 0.24272
12352 7 0.487492 0.17199 0.244126
14991 5 0.449602 0.209083 0.199665
14957 7 0.415565 0.174493 0.237083
15274 9 0.486031 0.163711 0.215349
14919 6 0.406264 0.180475 0.242665
12406 7 0.493746 0.240004 0.240734
14994 7 0.435207 0.242156 0.222421
14979 1 0.419467 0.240915 0.196305
17539 5 0.391969 0.214168 0.195682
12329 7 0.431601 0.146207 0.228856
14921 7 0.428973 0.181943 0.223141
14947 3 0.469273 0.151706 0.248726
14916 5 0.490531 0.208494 0.195349
14920 7 0.424042 0.206465 0.22086
15275 9 0.467648 0.191965 0.215685
14908 2 0.474728 0.142583 0.203216
14909 2 0.47292 0.214491 0.203624
15261 9 0.461126 0.148716 0.241799
14913 5 0.492573 0.1502 0.195579
20186 7 0.282096 0.246227 0.159174
22795 7 0.12053 0.241278 0.22208
17618 7 0.268362 0.243407 0.223433
22791 6 0.0689469 0.243566 0.230029
22829 7 0.0538822 0.244065 0.227187
20187 7 0.307676 0.247551 0.155343
20168 7 0.211664 0.249953 0.218638
17850 7 0.378514 0.250215 0.239227
25231 3 0.0604537 0.0877514 0.248965
22679 3 0.157576 0.142326 0.249906
25178 3 0.0187898 0.0625614 0.304875
25245 3 0.0189342 0.112465 0.306534
25251 5 0.0128225 0.0531494 0.285369
25246 4 0.0280257 0.0885022 0.29121
25243 2 0.0265361 0.112971 0.294781
25224 1 0.08053 0.0900129 0.289355
25179 5 0.0524814 0.0558673 0.291848
25173 2 0.0282184 0.0631472 0.293357
25170 1 0.0769525 0.0258644 0.291653
25232 5 0.0743778 0.0865704 0.268446
25230 5 0.0765734 0.0232496 0.271103
22671 1 0.10441 0.0581194 0.26963
25171 1 0.0100856 0.0558415 0.264546
25229 5 0.036863 0.0278918 0.264276
25306 5 0.0347311 0.0872619 0.263846
25226 2 0.0572436 0.0951439 0.260877
25225 2 0.0594157 0.0177328 0.261862
25496 9 0.00316202 0.0597956 0.305072
25288 6 0.0833496 0.088104 0.309493
22619 1 0.107479 0.121877 0.268071
25300 4 0.0539963 0.120218 0.260997
25248 5 0.0497141 0.12124 0.292303
22699 5 0.107137 0.117985 0.290811
22624 5 0.112013 0.0588473 0.288885
25247 5 0.00727637 0.121562 0.287741
25497 9 0.0173783 0.0986344 0.309417
25257 7 0.0962954 0.0785329 0.310656
22944 9 0.112898 0.112832 0.311183
25218 6 0.0779985 0.0345533 0.311448
22626 3 0.12287 0.124808 0.309629
22622 3 0.124805 0.0677216 0.30752
25174 3 0.0256838 0.000971587 0.306044
25294 1 0.00300693 0.117741 0.265571
19367 7 0.318499 -0.00237169 0.494261
25184 7 0.0927921 0.0379516 0.313071
25227 3 0.0707024 0.0265888 0.251433
22648 6 0.102578 0.0582227 0.250438
22623 4 0.127681 0.0268136 0.299063
22681 5 0.135551 0.0242371 0.268268
22620 2 0.12852 0.052927 0.297294
19999 4 0.218319 0.0491039 0.303551
19993 2 0.226682 0.0648111 0.294827
20068 2 0.228017 0.114285 0.298239
20071 4 0.225263 0.0891138 0.299542
22625 5 0.151633 0.0606652 0.293185
22627 5 0.149543 0.121243 0.293482
22618 1 0.173275 0.092222 0.290269
20076 5 0.210506 0.0633025 0.285392
22600 1 0.18269 0.0290728 0.291196
22609 5 0.174196 0.0333387 0.273431
22678 5 0.172909 0.0919458 0.271388
19990 1 0.209564 0.0594245 0.267672
22677 5 0.133226 0.0928034 0.266369
20129 5 0.233752 0.0917755 0.267351
20053 5 0.233157 0.0302876 0.264228
22602 2 0.157126 0.0357547 0.264313
22673 2 0.156081 0.0859988 0.262999
22676 4 0.153779 0.0606325 0.260997
20119 1 0.204948 0.12248 0.269822
22608 3 0.167027 0.0220481 0.255143
22675 3 0.162224 0.0954831 0.251657
19994 5 0.224865 0.00922584 0.301953
22665 6 0.16608 0.0993698 0.31032
22634 7 0.157431 0.111592 0.310507
22545 2 0.128338 0.00186132 0.295206
22919 9 0.159746 0.110767 0.25154
20072 5 0.209893 0.123742 0.291134
19992 8 0.214602 0.0257904 0.311922
19998 3 0.184091 0.0217641 0.309249
22943 9 0.136326 0.078632 0.307779
20073 5 0.250862 0.118555 0.293682
20000 5 0.249987 0.0594067 0.291
17440 8 0.317482 0.0932624 0.310203
17446 3 0.287405 0.0911606 0.310065
17442 5 0.322537 0.0691226 0.303014
17447 4 0.322364 0.113672 0.300702
17443 4 0.330086 0.0284599 0.297414
17439 2 0.330365 0.0529729 0.294811
20048 1 0.282767 0.0903977 0.289856
19989 1 0.277631 0.0299705 0.288399
17445 5 0.353289 0.0583389 0.290407
17444 5 0.313495 0.057535 0.28609
20057 5 0.27431 0.0903303 0.271183
17495 1 0.304528 0.0593055 0.266776
17506 5 0.333958 0.0264526 0.267329
20054 5 0.272799 0.0275367 0.268684
17438 1 0.310539 0.12246 0.263557
17501 5 0.332651 0.0906692 0.260163
17421 2 0.356232 0.0322176 0.262048
20050 2 0.25718 0.0953827 0.262616
20049 2 0.255653 0.0211586 0.260626
17497 2 0.355759 0.0819921 0.257577
20040 6 0.282245 0.0188181 0.308761
17500 4 0.358685 0.0560999 0.257821
20124 4 0.259574 0.1201 0.260083
17427 4 0.353891 0.0165819 0.252906
17838 9 0.32582 0.00286572 0.311248
20056 3 0.263167 0.0838062 0.252185
17428 5 0.374983 0.0263396 0.269809
17369 2 0.331223 0.00262345 0.294672
17448 5 0.351767 0.119318 0.288267
20365 9 0.252194 0.04583 0.249102
20051 3 0.260849 0.0330196 0.250041
17502 5 0.373566 0.0914105 0.265282
17437 1 0.377953 0.0876266 0.286344
14822 3 0.420852 0.0548557 0.304954
14891 4 0.43065 0.0884433 0.296188
14817 2 0.430207 0.0633665 0.29438
14887 2 0.429847 0.113202 0.292781
14823 5 0.452932 0.0552969 0.291189
17418 1 0.382903 0.0265413 0.287941
14893 5 0.453316 0.118993 0.289608
14897 5 0.413822 0.0579963 0.285403
14892 5 0.412246 0.11499 0.283877
14866 1 0.480842 0.0862948 0.288156
14814 1 0.47677 0.0219466 0.288858
14873 5 0.473194 0.0241573 0.26837
14876 5 0.476047 0.0858027 0.268837
14815 1 0.409931 0.0593897 0.265073
14943 1 0.403589 0.119824 0.265612
14954 5 0.434612 0.0882721 0.265331
17412 6 0.386386 0.0216006 0.308468
14869 2 0.457952 0.0923306 0.261101
14872 5 0.432087 0.0201564 0.265711
14867 2 0.453801 0.0174395 0.260468
14948 4 0.460914 0.117082 0.258437
14860 6 0.485239 0.086133 0.309349
17379 7 0.396709 0.0345259 0.306628
14870 5 0.452696 0.0343238 0.252031
14875 4 0.454965 0.0778898 0.251274
17380 7 0.397941 0.0111505 0.310668
15286 9 0.427232 0.063375 0.31113
14902 7 0.431525 0.0932772 0.313535
14331 5 0.488955 0.213575 0.469917
25299 5 0.0525842 0.156134 0.251668
25296 2 0.0553289 0.145156 0.262477
25241 1 0.0735692 0.151658 0.290398
25249 3 0.0179489 0.182563 0.306278
25360 6 0.0856549 0.217049 0.307879
25320 4 0.0265329 0.213821 0.294355
25317 2 0.0257184 0.239148 0.293088
25295 1 0.0773035 0.2127 0.286931
25250 5 0.0481259 0.179659 0.291668
25244 2 0.0257939 0.188613 0.294523
25325 5 0.00748751 0.179056 0.286961
25302 5 0.0746838 0.152489 0.269228
25305 5 0.0705235 0.21285 0.268621
22742 1 0.10106 0.1818 0.265847
25301 5 0.0330299 0.151304 0.267485
25242 1 0.00472443 0.179094 0.265862
25376 5 0.0298056 0.220109 0.266193
25298 2 0.0519812 0.217924 0.260279
25289 6 0.0855754 0.15549 0.310839
25498 9 0.0238869 0.195301 0.310902
25371 4 0.055149 0.242176 0.256122
22690 1 0.104659 0.243702 0.264258
22695 5 0.107911 0.185819 0.286821
22773 5 0.10777 0.245405 0.28351
25499 9 0.021422 0.244541 0.309994
25331 7 0.0935871 0.231424 0.309444
22697 3 0.120833 0.242498 0.303533
25304 4 0.0496138 0.201032 0.251601
25330 7 0.0959929 0.205196 0.307283
22693 3 0.119587 0.184103 0.305786
22945 9 0.104853 0.177114 0.307381
25254 7 0.0974878 0.143515 0.309204
22694 4 0.123254 0.152063 0.294955
25322 5 0.0470288 0.246487 0.288897
25321 5 0.00695366 0.243353 0.285344
22691 2 0.12604 0.176993 0.293925
20070 3 0.227836 0.125756 0.309602
22621 2 0.125877 0.127568 0.297009
22747 5 0.151319 0.220158 0.251814
22748 4 0.158984 0.181101 0.258246
22674 2 0.156657 0.156111 0.261302
22754 5 0.133111 0.152967 0.265474
20202 5 0.233419 0.213021 0.262869
22672 1 0.181239 0.152981 0.290248
20142 4 0.23276 0.214733 0.291955
20147 5 0.211926 0.183861 0.284978
22696 5 0.150104 0.18242 0.291363
20074 3 0.224513 0.182214 0.304186
20069 2 0.230445 0.189566 0.292718
22689 1 0.177233 0.211854 0.28869
20392 9 0.229429 0.193504 0.309583
20139 2 0.231141 0.239414 0.292469
20067 1 0.208417 0.182427 0.264423
22680 5 0.173963 0.149277 0.269338
22750 5 0.172676 0.21343 0.269708
22749 5 0.130931 0.206968 0.265455
20125 5 0.234358 0.152833 0.264533
22744 2 0.15583 0.205767 0.26136
22737 6 0.18766 0.212833 0.308875
22736 6 0.187623 0.156739 0.310244
22698 5 0.149704 0.241813 0.290034
20190 1 0.201116 0.244897 0.265259
20393 9 0.235323 0.232968 0.309144
20143 5 0.209568 0.246483 0.286869
20141 3 0.229209 0.245477 0.304599
22702 7 0.202426 0.218188 0.308971
22705 7 0.196957 0.170353 0.310734
14607 9 0.428644 -0.000223882 0.335218
22704 7 0.200275 0.145749 0.309746
22952 7 0.1435 0.230222 0.316277
19402 6 0.31885 0.00159883 0.486556
17524 5 0.31105 0.124498 0.282353
20144 5 0.253111 0.249657 0.28979
17441 2 0.328911 0.12687 0.291051
20075 5 0.253876 0.182337 0.289754
17572 4 0.36293 0.186535 0.258188
20126 5 0.277312 0.155456 0.264038
20066 1 0.276408 0.149415 0.28653
17516 2 0.331441 0.177075 0.292454
17518 3 0.329915 0.187446 0.303823
20114 6 0.285279 0.214053 0.307405
17519 4 0.333271 0.151565 0.293935
17521 5 0.353642 0.186599 0.288817
20120 1 0.282615 0.21357 0.287203
17520 5 0.312114 0.179888 0.284766
17595 5 0.3127 0.241608 0.285342
17567 1 0.305303 0.182776 0.265365
20128 5 0.273768 0.212929 0.267222
17577 5 0.334954 0.160387 0.262758
17573 5 0.333547 0.213311 0.262313
17498 2 0.35894 0.16202 0.260342
20121 2 0.256988 0.145096 0.258906
17569 2 0.357471 0.211355 0.259177
20122 2 0.256935 0.219823 0.259165
20196 4 0.260309 0.245115 0.257844
20113 6 0.273854 0.147489 0.306143
17523 5 0.354531 0.248781 0.290308
17515 1 0.308481 0.246231 0.265393
17839 9 0.314312 0.192318 0.305089
20079 7 0.297849 0.222953 0.30804
20082 7 0.261545 0.136652 0.3046
20081 7 0.264364 0.160407 0.308501
17522 3 0.324176 0.243877 0.304462
17561 6 0.376015 0.204443 0.307523
17529 7 0.362283 0.199126 0.304751
17530 7 0.372135 0.213434 0.314296
15305 9 0.373754 0.15305 0.313156
17517 2 0.329562 0.250558 0.293082
17574 5 0.374585 0.218399 0.267667
17505 5 0.374111 0.151324 0.26829
17514 1 0.379658 0.213169 0.287494
14890 5 0.422513 0.128337 0.301642
15020 4 0.453736 0.247819 0.25899
14945 2 0.458629 0.141986 0.258752
14886 1 0.411083 0.180723 0.262983
14894 3 0.383745 0.149564 0.306813
14972 5 0.41407 0.187333 0.27868
14896 5 0.451454 0.180053 0.285609
14888 8 0.414767 0.153513 0.307844
12342 3 0.487387 0.212003 0.306571
14895 4 0.418462 0.171662 0.296228
14964 2 0.429071 0.235402 0.295631
14967 4 0.428198 0.211065 0.294855
14889 2 0.428806 0.187715 0.288766
17496 1 0.383534 0.149726 0.287608
14944 1 0.481343 0.211854 0.286825
14885 1 0.47624 0.148565 0.285998
14953 5 0.474746 0.217311 0.267868
14936 6 0.475833 0.162294 0.305917
14950 5 0.473846 0.146642 0.267974
15025 5 0.435801 0.212478 0.260188
14949 5 0.434603 0.148633 0.261163
14946 2 0.458044 0.223093 0.258595
15015 1 0.405712 0.246784 0.266857
14969 5 0.450537 0.24449 0.291453
14968 5 0.411001 0.245825 0.288645
12753 9 0.478376 0.217483 0.313562
14900 7 0.465013 0.1607 0.311539
14901 7 0.48041 0.178068 0.306152
14207 7 0.43559 -0.0027308 0.395203
14966 3 0.426934 0.243668 0.30768
25256 7 0.0709976 0.0804107 0.313171
25183 7 0.0669388 0.0458008 0.314326
24544 6 0.0837235 0.0310497 0.335728
24654 7 0.107699 0.0957377 0.333244
24655 7 0.0870233 0.0866249 0.328135
24614 6 0.0930172 0.0908342 0.335251
24820 9 0.0414767 0.0401446 0.340241
24550 1 0.0886165 0.0891167 0.355242
24571 2 0.0333027 0.0620706 0.352259
24576 3 0.0284691 0.0479426 0.34237
24577 5 0.0578248 0.0575106 0.354188
24639 2 0.0332332 0.113003 0.353333
24643 4 0.0306461 0.0873535 0.350199
24644 5 0.015935 0.115711 0.362438
24645 5 0.0566847 0.121008 0.355111
24649 5 0.016819 0.056193 0.361281
24568 1 0.0824772 0.0271251 0.356441
22022 5 0.114415 0.0607811 0.356256
22097 5 0.120803 0.116835 0.3555
24582 7 0.0992576 0.0340543 0.334417
24581 7 0.0768773 0.0336518 0.329091
25186 7 0.0450647 0.0674342 0.328595
25217 6 0.052825 0.0651203 0.322099
25185 7 0.0408835 0.0636684 0.316509
22266 9 0.124222 0.0163235 0.339076
24819 9 0.0203763 0.00404866 0.339782
22017 1 0.116441 0.117009 0.375709
22633 7 0.176967 0.104289 0.315486
21945 2 0.134789 0.000297701 0.352856
22267 9 0.146925 0.0543455 0.335058
22024 3 0.133228 0.111369 0.336085
22020 3 0.133868 0.0484965 0.338584
20391 9 0.228443 0.113749 0.315033
20409 9 0.171841 0.024435 0.314613
22032 7 0.204837 0.0399421 0.335536
22021 4 0.135372 0.0262956 0.354898
20065 6 0.239153 0.0273543 0.321946
22631 7 0.180796 0.0774065 0.327814
22632 7 0.171933 0.0968032 0.332211