ITEM: TIMESTEP
496000
ITEM: NUMBER OF ATOMS
25520
ITEM: BOX BOUNDS pp pp pp
-3.9540116772173578e-01 6.0093944757722554e+01
-1.9511040340109385e+00 5.9121389308010791e+01
-1.2657693118795004e+01 1.1193342552480289e+02
ITEM: ATOMS id type xs ys zs
25182 6 0.107663 0.0241893 0.152513
25252 6 0.10836 0.0818076 0.15315
25214 3 0.0409845 0.0503158 0.154899
25287 5 0.0279009 0.0507858 0.173702
25283 5 0.071086 0.116832 0.172745
25282 5 0.0304074 0.114693 0.17959
25281 4 0.0450093 0.0846016 0.167578
25277 2 0.046891 0.109204 0.170408
25215 5 0.0699885 0.0514923 0.16942
25209 2 0.0459432 0.0592876 0.166469
25188 1 0.101599 0.0828853 0.17279
25458 9 0.0509955 0.0558036 0.149205
25206 1 0.0951763 0.0213161 0.171446
25293 7 0.118714 0.0920235 0.14942
25292 7 0.118343 0.0696916 0.15219
2433 1 0.00388916 0.0201907 0.175624
25219 7 0.118863 0.0345585 0.150012
22735 5 0.131632 0.11683 0.17537
22660 5 0.13 0.0529249 0.172681
22905 9 0.163604 0.0570442 0.152684
22662 3 0.14194 0.114374 0.155331
22658 3 0.148996 0.0506481 0.155034
22656 2 0.150549 0.045205 0.166971
20112 5 0.230545 0.04959 0.173442
22663 5 0.170828 0.121256 0.169533
22654 1 0.198072 0.085333 0.171628
22661 5 0.174155 0.0536219 0.16973
22659 4 0.151813 0.0201254 0.168219
22563 1 0.201845 0.0206786 0.173451
22629 6 0.210729 0.0193377 0.153441
22630 6 0.192239 0.0824922 0.151313
22667 7 0.191528 0.0839264 0.143488
22668 7 0.205658 0.0718762 0.15056
20108 5 0.232698 0.116692 0.173787
22670 7 0.222938 0.0303462 0.153382
22657 2 0.146722 0.12627 0.166562
22669 7 0.216958 0.00498432 0.152245
20036 3 0.241222 0.0548064 0.154822
20353 9 0.231415 0.12022 0.152057
20106 3 0.242319 0.108844 0.152633
20352 9 0.24233 0.0689859 0.151229
20104 2 0.249301 0.107559 0.16512
20107 4 0.251281 0.0828215 0.168554
20031 2 0.250338 0.0580885 0.166688
20118 7 0.306031 0.0741757 0.14522
20117 7 0.322355 0.0874237 0.151454
20077 6 0.311211 0.0757842 0.152872
17480 3 0.345121 0.0418716 0.153668
17799 9 0.334294 0.0533061 0.15256
17478 2 0.350219 0.040708 0.16643
20109 5 0.272756 0.117634 0.166083
17482 5 0.331815 0.0502584 0.173139
20037 5 0.272906 0.0476251 0.169347
20011 1 0.301884 0.0819399 0.170989
20028 1 0.298289 0.0172536 0.171255
17481 4 0.350501 0.0169934 0.170069
17560 5 0.326874 0.114707 0.173112
17484 3 0.3456 0.108666 0.155644
20003 6 0.30906 0.0157008 0.151794
20041 7 0.302495 0.0200869 0.144701
17479 2 0.346941 0.122569 0.166451
17800 9 0.353209 0.115663 0.1501
20042 7 0.323828 0.0207393 0.150029
17485 5 0.369652 0.11409 0.170775
17483 5 0.371998 0.0513828 0.169606
17490 7 0.393155 0.0929326 0.143631
17489 7 0.390294 0.0709286 0.146493
17451 6 0.39783 0.083391 0.14969
14856 3 0.447094 0.0452064 0.15551
15246 9 0.442331 0.0556194 0.150777
14929 4 0.443363 0.0798533 0.166291
14926 2 0.447714 0.104592 0.167898
14851 2 0.448586 0.0549434 0.16747
14931 5 0.470191 0.108133 0.172401
14857 5 0.472464 0.0501391 0.169993
17476 1 0.395147 0.0824915 0.169807
14934 5 0.431411 0.0459417 0.174966
14930 5 0.430975 0.115028 0.175081
17384 1 0.402161 0.016961 0.173233
17450 6 0.411558 0.0147506 0.154032
17492 7 0.421148 0.0274538 0.152887
14928 3 0.446476 0.114771 0.156559
14848 1 0.497526 0.0174514 0.173635
15247 9 0.445646 0.104625 0.150454
20123 3 0.26377 0.148637 0.249349
25280 5 0.0386477 0.125056 0.161527
2104 7 0.0172951 0.194168 0.159019
25290 7 0.115097 0.153182 0.152776
2033 7 0.0474568 0.140191 0.135499
25253 6 0.0988436 0.153312 0.15421
2032 7 0.0416195 0.167312 0.136478
1995 6 0.0353842 0.151793 0.138928
25275 1 0.0935302 0.148119 0.174655
25278 8 0.0301063 0.147722 0.154147
22957 9 0.095694 0.236444 0.156026
22732 3 0.10306 0.22127 0.156233
25285 4 0.039925 0.170384 0.161348
25359 5 0.0318205 0.177061 0.18095
25356 5 0.0711928 0.241055 0.17421
25354 4 0.0442065 0.209837 0.169903
25351 2 0.0471261 0.234789 0.171631
25286 5 0.0699771 0.181036 0.174374
25279 2 0.0460581 0.184923 0.17128
25259 1 0.100691 0.21329 0.174936
25355 5 0.0299421 0.242716 0.180341
25394 6 0.0807812 0.185494 0.14029
25291 7 0.0925061 0.164105 0.148843
25432 7 0.0668333 0.18235 0.143362
25433 7 0.0864443 0.19751 0.144925
2065 6 0.00755702 0.207085 0.15861
2103 7 0.0183572 0.218842 0.158588
1933 1 0.00190168 0.146564 0.179058
25284 3 0.00110377 0.149914 0.159642
25353 3 0.0418462 0.246773 0.160551
22906 9 0.155745 0.107191 0.152757
22741 7 0.191308 0.151211 0.148794
1963 7 0.153045 0.234736 0.136753
1962 7 0.161118 0.207708 0.137531
22740 7 0.215162 0.157289 0.149968
1927 6 0.147604 0.218975 0.13897
22726 8 0.133479 0.216995 0.152909
22730 5 0.129643 0.178857 0.177569
22700 6 0.204939 0.144902 0.151449
22636 1 0.200992 0.146803 0.172398
22729 4 0.144286 0.150672 0.165509
22733 4 0.141102 0.23781 0.161719
20188 7 0.198594 0.231837 0.154605
20189 7 0.219386 0.217241 0.155774
20148 6 0.202944 0.216132 0.154581
22728 5 0.139798 0.193153 0.160037
22725 2 0.146742 0.175943 0.168541
20178 5 0.230818 0.241862 0.177484
20183 5 0.231519 0.175544 0.174676
22723 1 0.195742 0.209843 0.174363
22731 5 0.170091 0.18188 0.171004
22734 5 0.172317 0.242236 0.173897
22807 5 0.132485 0.244558 0.180941
20110 3 0.239905 0.174698 0.155649
20354 9 0.235152 0.186768 0.151131
20105 2 0.247704 0.183922 0.166886
20177 4 0.24581 0.209516 0.164651
20173 2 0.247474 0.233728 0.168939
17555 4 0.342818 0.147826 0.1651
20102 1 0.295491 0.147816 0.17149
17554 3 0.34032 0.185344 0.155708
17801 9 0.341212 0.200716 0.157191
17558 3 0.338495 0.230004 0.157264
17552 2 0.347443 0.172387 0.166233
17556 5 0.328932 0.180283 0.173708
20111 5 0.270787 0.176866 0.17047
20084 1 0.301518 0.20891 0.173669
20179 5 0.272438 0.238028 0.171652
17631 5 0.331985 0.238117 0.176644
17802 9 0.34626 0.233951 0.151253
17553 2 0.346957 0.245182 0.167343
17557 5 0.371697 0.175713 0.169487
17559 5 0.371866 0.240498 0.168839
17564 7 0.381693 0.226672 0.155421
17565 7 0.41975 0.130243 0.153145
17563 7 0.384316 0.206259 0.148231
17566 7 0.41131 0.1529 0.15109
14938 7 0.441872 0.192044 0.143663
14937 7 0.423785 0.208016 0.142489
17525 6 0.406298 0.138714 0.153533
17459 1 0.39988 0.145187 0.17372
17526 6 0.393124 0.217192 0.15164
14899 6 0.437611 0.203689 0.139319
15248 9 0.447037 0.154566 0.156552
15002 3 0.445741 0.236404 0.153651
14932 3 0.438531 0.1668 0.15772
15000 2 0.450928 0.229792 0.165708
15003 4 0.448315 0.204872 0.166298
14927 2 0.448385 0.179723 0.167685
15005 5 0.473787 0.237285 0.168697
14933 5 0.471588 0.172886 0.170641
15004 5 0.432007 0.236188 0.173183
17550 1 0.398683 0.206841 0.170886
15008 5 0.433009 0.174557 0.17714
15249 9 0.444939 0.223526 0.148711
14924 1 0.497373 0.141404 0.173693
14861 7 0.497848 0.0145197 0.146748
20170 7 0.182445 0.193431 0.247457
20046 7 0.219008 0.00216206 0.22336
22687 7 0.0887156 0.0641931 0.247702
25471 9 0.0693824 0.0133748 0.243849
25198 5 0.0954692 0.0806637 0.192105
25195 5 0.0951383 0.0226613 0.192744
25268 5 0.0553168 0.0811058 0.196523
25258 1 0.0254302 0.114628 0.199352
25207 1 0.0278691 0.0535935 0.195536
25191 2 0.0780198 0.0871146 0.200435
25263 4 0.0797226 0.110762 0.202883
25197 4 0.0834286 0.0766287 0.211171
25192 5 0.0745135 0.0324644 0.210181
25196 3 0.0334803 0.0555588 0.213197
25190 8 0.0641114 0.0556874 0.217064
25510 9 0.0212885 0.0543074 0.219359
25517 7 0.0668183 0.0789958 0.23316
25240 6 0.0616481 0.0613513 0.232284
22685 7 0.0910882 0.0947015 0.223159
25506 7 0.0676023 0.0517864 0.238286
22649 6 0.0922191 0.108943 0.226521
25194 5 0.0528033 0.0186326 0.197235
25189 2 0.0771071 0.0160631 0.201081
25201 6 0.0138084 0.0499612 0.242894
22684 7 0.0784912 0.110878 0.230429
25308 6 0.0271558 0.103797 0.218341
25472 9 0.0644848 0.0975033 0.246645
25270 6 0.0519685 0.116634 0.238774
25203 7 0.0771299 0.00752813 0.222392
22760 7 0.110618 0.125056 0.240946
22686 7 0.0985433 0.0406322 0.248105
22650 7 0.111019 0.0630952 0.215576
25309 7 0.0380109 0.113522 0.241795
22958 9 0.122543 0.101644 0.218207
22648 6 0.103205 0.055446 0.247631
25272 7 0.0344718 0.104293 0.225886
25237 7 0.0245028 0.0392617 0.240692
25271 7 0.0137786 0.0955182 0.220972
22635 1 0.124095 0.0509835 0.194084
25227 3 0.0703992 0.0250287 0.248916
22683 6 0.125499 0.056015 0.21561
25269 6 0.00476759 0.117802 0.24653
22614 7 0.129597 0.0080946 0.245441
9777 7 0.446217 0.245156 0.224703
22651 7 0.13234 0.0634843 0.221485
20062 7 0.129651 0.0683021 0.240188
22652 7 0.127467 0.00673292 0.221673
20134 7 0.199221 0.0615988 0.239706
22918 9 0.164347 0.0224946 0.244788
20023 6 0.139135 0.0768616 0.235419
20061 7 0.15183 0.0662318 0.234315
22643 5 0.193434 0.083869 0.190425
22572 5 0.194297 0.0208121 0.193942
20083 1 0.224664 0.115588 0.192216
22919 9 0.156231 0.0898334 0.244638
22655 1 0.128198 0.113418 0.194263
20029 1 0.23103 0.050908 0.194828
22642 5 0.153496 0.0753852 0.194497
20063 7 0.17848 0.0463656 0.224218
22637 2 0.176807 0.0766473 0.198711
22641 4 0.181337 0.0527573 0.202492
22565 2 0.17765 0.0271638 0.202417
22640 5 0.174673 0.0928038 0.20789
20060 6 0.23938 0.0570488 0.214996
20022 6 0.178457 0.0617762 0.225271
20064 7 0.178278 0.0672471 0.218195
22647 5 0.15472 0.0204522 0.198941
20096 6 0.208722 0.0543623 0.245027
22571 3 0.182471 0.017202 0.213809
22638 8 0.163658 0.113597 0.216025
22644 3 0.133793 0.10955 0.212945
20099 7 0.207234 0.0968913 0.212257
17471 6 0.227359 0.0253268 0.232087
20135 7 0.214144 0.0414709 0.240972
22965 7 0.174904 0.110847 0.236626
20100 7 0.242859 0.108217 0.239192
22577 7 0.1465 0.0403147 0.231072
20025 7 0.230306 0.0687169 0.217844
22688 6 0.17585 0.120337 0.229726
20131 6 0.218959 0.107786 0.21306
22612 6 0.148903 0.0249264 0.232041
22576 7 0.155714 0.0224356 0.225124
20024 7 0.254377 0.0623059 0.217188
20130 6 0.250591 0.115978 0.233701
20101 7 0.240327 0.114804 0.227441
17509 7 0.230224 0.0359291 0.226737
20098 7 0.210749 0.12074 0.21528
17510 7 0.241413 0.0209326 0.235481
20133 7 0.19641 0.0992105 0.248374
22931 9 0.195208 0.00751626 0.213398
20009 7 0.194736 0.00135252 0.246
22575 6 0.114866 0.00394567 0.246518
20097 6 0.21248 0.104028 0.248371
20051 3 0.264385 0.0239322 0.24563
20365 9 0.276118 0.0346762 0.245152
20366 9 0.267831 0.0980824 0.245267
20016 5 0.25318 0.0207169 0.195788
20020 5 0.29445 0.0818314 0.19151
20017 5 0.293773 0.0210698 0.192173
17477 1 0.327908 0.114139 0.193647
17458 1 0.323159 0.0504194 0.192086
20095 5 0.253774 0.0830408 0.196655
17464 5 0.352526 0.0816968 0.194543
20013 2 0.277677 0.0871374 0.200175
20379 9 0.286723 0.0879682 0.216743
20089 4 0.27956 0.112116 0.201312
20019 3 0.281311 0.076814 0.212037
20378 9 0.265888 0.031713 0.212523
17466 6 0.321474 0.0391847 0.212897
17493 7 0.326283 0.0477733 0.21909
17494 7 0.308005 0.0320886 0.215771
14960 7 0.325141 0.0873971 0.226206
14918 6 0.329103 0.0734192 0.228997
14959 7 0.343564 0.0758691 0.231589
17469 5 0.350073 0.0147974 0.198662
20014 3 0.278957 0.0232503 0.210636
20012 2 0.276089 0.0120578 0.199523
17503 6 0.30299 0.0573225 0.244723
17499 3 0.362879 0.0862172 0.24377
17457 7 0.313493 0.0643177 0.239234
17472 7 0.319247 0.117334 0.219913
17548 7 0.282781 0.12009 0.230848
17578 6 0.293846 0.1244 0.225854
17508 6 0.331641 0.114763 0.214437
17456 7 0.289879 0.0663891 0.245728
14847 7 0.374931 0.0589484 0.232403
17860 7 0.364512 0.0105924 0.227419
17826 9 0.36652 0.0969905 0.210289
17460 2 0.374623 0.0739087 0.198232
17463 4 0.374166 0.0491558 0.200795
17511 7 0.282785 0.00417831 0.225198
17386 2 0.373206 0.0241917 0.200577
20056 3 0.267419 0.0840285 0.249979
14878 6 0.376127 0.0475197 0.227715
14846 7 0.362546 0.0496469 0.223496
17544 6 0.314665 0.122525 0.24634
17583 7 0.30722 0.122857 0.239325
17473 7 0.345036 0.120808 0.218205
17813 9 0.372704 0.0980178 0.24406
17462 3 0.378316 0.0875857 0.208359
25235 6 0.0815886 0.000882726 0.229266
14875 4 0.457147 0.0730767 0.248576
17391 3 0.381202 0.0159911 0.211854
17825 9 0.382028 0.0282108 0.216787
15272 9 0.477801 0.00417754 0.218032
14840 5 0.491966 0.0799569 0.195314
17465 5 0.391106 0.0805459 0.18953
14906 1 0.421434 0.110922 0.194437
17392 5 0.390386 0.017498 0.191995
14849 1 0.424668 0.0479379 0.195685
14917 5 0.449289 0.0780262 0.197641
14837 5 0.450108 0.0202968 0.198511
14911 4 0.469313 0.111963 0.201384
14834 2 0.471622 0.0871216 0.201902
14839 3 0.474006 0.0783093 0.213493
14955 6 0.414288 0.0532904 0.216104
15273 9 0.471697 0.0903476 0.218681
14922 7 0.399137 0.0554586 0.218228
14923 7 0.42373 0.048762 0.221783
15308 7 0.464474 0.0536119 0.223551
14884 6 0.453626 0.0409921 0.227507
15297 7 0.459925 0.0252619 0.226068
15303 9 0.406205 0.0508764 0.238231
14868 8 0.446489 0.0487707 0.242333
14835 3 0.480395 0.0169123 0.213672
14874 3 0.416624 0.0494417 0.245403
14833 2 0.473573 0.0125191 0.201799
14914 6 0.411462 0.11263 0.214777
12366 6 0.475777 0.102163 0.231076
14838 5 0.491413 0.0204952 0.194093
14951 6 0.400434 0.122309 0.242261
14941 7 0.405765 0.0975086 0.215233
12407 7 0.472667 0.0919688 0.236774
12408 7 0.464273 0.113635 0.232471
14904 7 0.410408 0.130432 0.237492
14905 7 0.386724 0.129057 0.240342
22717 6 0.112061 0.12893 0.248107
25343 6 0.00103774 0.235929 0.245306
22795 7 0.105086 0.238162 0.21888
25310 7 0.0567475 0.128839 0.24343
25484 9 0.087428 0.132185 0.219305
25348 7 0.0100693 0.165492 0.222436
25267 5 0.0936527 0.206392 0.195524
25265 5 0.0939185 0.146365 0.194543
25347 7 0.0327174 0.177848 0.224245
25512 9 0.0063632 0.172679 0.241094
25303 3 0.0180117 0.176297 0.246864
25260 2 0.0781519 0.136316 0.20299
25264 5 0.0544306 0.141641 0.200019
25332 1 0.0209765 0.238159 0.200131
25276 1 0.0270026 0.177142 0.200618
25342 5 0.0522252 0.205524 0.200119
25337 4 0.0764206 0.239836 0.20335
25261 2 0.0753192 0.21445 0.203138
25266 3 0.0777918 0.204981 0.21449
25262 3 0.0832496 0.144907 0.214298
25485 9 0.0877922 0.192461 0.214702
22720 7 0.106823 0.169526 0.216231
25377 6 0.0209781 0.174894 0.219204
25507 7 0.0721281 0.188885 0.228575
25518 7 0.0688418 0.161558 0.227925
25314 6 0.0612536 0.176137 0.23132
25297 8 0.049089 0.175566 0.245186
22830 7 0.0715181 0.224373 0.226668
22791 6 0.0782998 0.233395 0.232325
22829 7 0.0736136 0.228182 0.239203
25378 6 0.0124545 0.242464 0.21978
22751 3 0.120622 0.241015 0.247148
22960 9 0.108877 0.243653 0.241686
25345 7 0.0154746 0.240365 0.227289
22756 6 0.118721 0.180707 0.215041
22825 6 0.120728 0.237729 0.219005
22759 7 0.126299 0.136372 0.247474
22706 1 0.12421 0.178904 0.195141
22796 7 0.124155 0.247358 0.224729
22954 7 0.178565 0.135957 0.23253
25220 7 0.117182 0.0111519 0.153324
22719 7 0.125754 0.182176 0.221772
20167 7 0.203651 0.228372 0.215129
22646 5 0.194365 0.147105 0.191837
22713 5 0.193034 0.210765 0.19413
20103 1 0.227121 0.1767 0.195445
22716 5 0.152889 0.144172 0.194071
20154 1 0.224189 0.240755 0.196706
22724 1 0.126725 0.241466 0.198958
22722 7 0.151394 0.16866 0.24008
22645 4 0.172931 0.13799 0.20885
22712 5 0.152989 0.212452 0.199016
22639 2 0.174685 0.151411 0.199152
22708 2 0.175183 0.201863 0.201865
22711 4 0.175559 0.176445 0.201213
22710 3 0.181196 0.205196 0.213808
22932 9 0.185125 0.192323 0.217865
20204 6 0.214867 0.239596 0.216462
20092 3 0.231491 0.175669 0.214569
22721 7 0.133756 0.18543 0.24267
20406 9 0.219903 0.173102 0.220737
22745 8 0.151172 0.238713 0.244585
20166 6 0.184302 0.167357 0.227866
20206 7 0.170982 0.175505 0.228273
22755 6 0.140451 0.177547 0.236741
20205 7 0.182013 0.156415 0.221645
22762 6 0.168955 0.235267 0.231163
20169 7 0.198041 0.183721 0.239339
20203 6 0.197884 0.187634 0.246964
22955 7 0.160034 0.228447 0.224526
20208 7 0.223316 0.24808 0.242971
14915 3 0.479508 0.206877 0.21243
14880 7 0.394365 -0.000187461 0.242891
17651 6 0.245007 0.233307 0.233146
17617 7 0.233063 0.229023 0.228436
20127 3 0.265735 0.206783 0.247345
17854 9 0.32861 0.236571 0.222025
17537 4 0.378656 0.174638 0.2002
17581 7 0.298088 0.253973 0.23795
17545 6 0.298493 0.244067 0.244194
17491 7 0.422605 0.0022501 0.153927
17549 7 0.285287 0.132954 0.220126
17582 7 0.327741 0.133811 0.246467
17504 3 0.357503 0.142813 0.247644
20367 9 0.259198 0.136627 0.244595
20368 9 0.260665 0.219085 0.24259
20091 5 0.292483 0.145 0.190605
20094 5 0.296793 0.203071 0.19517
17531 1 0.321827 0.174468 0.195933
20090 5 0.252657 0.137446 0.193974
17551 1 0.327534 0.237328 0.197486
17538 5 0.35334 0.207159 0.194851
20164 5 0.253745 0.20531 0.196286
17543 5 0.353605 0.143865 0.1963
20085 2 0.27548 0.13627 0.1985
20086 8 0.261958 0.172339 0.216893
20087 2 0.276085 0.210723 0.201316
20159 4 0.275942 0.235509 0.200987
20088 5 0.272398 0.150647 0.208759
20093 4 0.274463 0.196065 0.211298
17547 7 0.337151 0.178209 0.222504
17540 3 0.338769 0.234013 0.215403
17579 6 0.325992 0.175524 0.216938
17546 7 0.312985 0.171586 0.221627
20136 6 0.275996 0.172023 0.231269
20413 7 0.269278 0.183388 0.236979
20402 7 0.275999 0.157541 0.23574
17534 8 0.369862 0.234288 0.21633
17814 9 0.360087 0.154226 0.242147
17571 3 0.368499 0.21734 0.24821
14996 7 0.362249 0.191402 0.235602
17861 7 0.379108 0.239427 0.236718
17461 2 0.375399 0.149431 0.201418
14916 5 0.493165 0.205471 0.191795
15031 7 0.429063 0.22296 0.2474
9739 6 0.458483 0.239278 0.228908
12353 7 0.493838 0.197175 0.242881
12328 7 0.453015 0.146919 0.223996
14979 1 0.424302 0.236513 0.191585
14942 7 0.397909 0.121746 0.215265
14920 7 0.431631 0.176295 0.221996
12291 6 0.439783 0.144605 0.227569
15261 9 0.456483 0.149561 0.240649
15026 6 0.364648 0.180159 0.230191
14997 7 0.369989 0.189649 0.224512
17536 5 0.377174 0.212472 0.208037
14957 7 0.431704 0.180453 0.243081
14908 2 0.473273 0.137192 0.20093
15262 9 0.461571 0.222464 0.240988
15274 9 0.489026 0.133448 0.215827
17827 9 0.370657 0.157879 0.217789
14956 6 0.429561 0.187474 0.216455
12352 7 0.490772 0.170995 0.242502
14947 3 0.467363 0.151919 0.246324
14992 6 0.41679 0.23051 0.244081
14910 3 0.479356 0.144536 0.212817
15030 7 0.418871 0.229621 0.236611
14913 5 0.49207 0.141495 0.192646
17533 2 0.376249 0.199156 0.198194
14925 1 0.427261 0.176627 0.196235
14921 7 0.444515 0.193465 0.215993
14991 5 0.453403 0.203792 0.197214
14958 7 0.417224 0.163305 0.238817
14909 2 0.476165 0.212097 0.200487
14952 3 0.462544 0.20904 0.245611
14985 4 0.479416 0.238379 0.200751
14919 6 0.416906 0.176334 0.242936
12329 7 0.430943 0.13511 0.223101
14912 5 0.453589 0.149456 0.196899
17539 5 0.393277 0.205649 0.189853
17584 6 0.386431 0.243366 0.229104
17468 5 0.395065 0.139379 0.195445
15275 9 0.492111 0.197092 0.213562
17467 3 0.375379 0.144663 0.213695
9776 7 0.466548 0.232006 0.222702
12405 7 0.494888 0.236276 0.236476
17580 7 0.282717 0.24156 0.24519
17618 7 0.25603 0.239344 0.228575
15027 6 0.425538 0.250905 0.210964
22757 7 0.113339 0.210686 0.250023
25178 3 0.0254055 0.0550023 0.304475
25245 3 0.028289 0.110205 0.30611
25251 5 0.0173928 0.0506353 0.284645
25246 4 0.0350866 0.0848844 0.291747
25243 2 0.0340275 0.109531 0.293914
25224 1 0.0878144 0.0856546 0.289967
25179 5 0.0585367 0.0518867 0.292077
25173 2 0.0347481 0.0595627 0.292641
25170 1 0.0812857 0.0223555 0.288729
25232 5 0.0789948 0.0832866 0.270885
25230 5 0.0797611 0.0222055 0.269017
22671 1 0.111886 0.053948 0.267833
25171 1 0.0126744 0.0524922 0.263821
25229 5 0.039026 0.0257176 0.262335
25294 1 0.00794678 0.114674 0.266942
25306 5 0.0383576 0.0835393 0.265258
25226 2 0.0616691 0.0916715 0.263176
25225 2 0.0623959 0.0179483 0.260063
25496 9 0.0117344 0.0612988 0.305309
25288 6 0.0932583 0.0908086 0.310841
22619 1 0.110997 0.11736 0.266286
25300 4 0.0590424 0.117251 0.262861
25248 5 0.0568017 0.117821 0.290675
22699 5 0.116151 0.113244 0.287455
22624 5 0.11714 0.0553822 0.288649
25247 5 0.014137 0.117023 0.28689
25218 6 0.0916103 0.0203803 0.308435
25497 9 0.0238462 0.0964067 0.309132
25495 9 0.0288886 0.0158096 0.302861
25184 7 0.105938 0.0291763 0.309519
25256 7 0.10323 0.102986 0.309742
22943 9 0.11488 0.0606662 0.308549
22608 3 0.169642 0.0161488 0.251367
22626 3 0.129431 0.118716 0.305787
22920 9 0.164392 0.127776 0.250441
22622 3 0.129802 0.0536585 0.307824
22623 4 0.133701 0.0210819 0.295502
22681 5 0.138632 0.0260402 0.264558
22620 2 0.135258 0.0463687 0.296228
19999 4 0.227216 0.0452637 0.301666
19993 2 0.233983 0.0613558 0.293237
20068 2 0.235812 0.110047 0.295405
20071 4 0.230888 0.0852011 0.298086
22625 5 0.158267 0.0531608 0.293104
22627 5 0.159515 0.11553 0.291244
22618 1 0.181503 0.0842361 0.28957
20076 5 0.218319 0.0576728 0.283747
22600 1 0.188745 0.0223326 0.28847
22609 5 0.181297 0.0245933 0.269823
22678 5 0.178899 0.085538 0.270013
19990 1 0.215742 0.052172 0.265333
22677 5 0.139221 0.0875593 0.265342
20129 5 0.239614 0.0829134 0.263689
20053 5 0.238838 0.0216635 0.261423
22602 2 0.162938 0.0303766 0.261532
22673 2 0.162122 0.0797359 0.261104
22676 4 0.164602 0.0553622 0.259283
19998 3 0.188955 0.02066 0.308237
20119 1 0.209608 0.114345 0.268444
20072 5 0.217298 0.118609 0.288766
19992 8 0.220194 0.0214354 0.309156
20070 3 0.231386 0.120156 0.30702
22621 2 0.136009 0.123072 0.293438
22675 3 0.16691 0.095363 0.2509
20409 9 0.179775 0.0172602 0.315393
20132 7 0.221851 0.0901826 0.247305
14265 7 0.496833 0.0770017 0.478414
20000 5 0.257417 0.0576304 0.289823
17448 5 0.358036 0.114094 0.288082
17440 8 0.320372 0.0818024 0.308305
17446 3 0.290521 0.0853766 0.309065
17442 5 0.327542 0.0584401 0.300484
17447 4 0.325987 0.104141 0.299166
17443 4 0.336586 0.0200877 0.293537
17439 2 0.333116 0.0440948 0.291082
20048 1 0.287992 0.0854098 0.28892
19989 1 0.279101 0.0216251 0.285708
17445 5 0.354633 0.0528878 0.286681
17444 5 0.312395 0.0465776 0.284229
20057 5 0.279003 0.0840758 0.270276
17495 1 0.308655 0.0513628 0.264775
17506 5 0.338354 0.0203146 0.263549
20054 5 0.27934 0.0227068 0.264957
17438 1 0.315241 0.112457 0.264404
17501 5 0.33788 0.0826722 0.260191
17421 2 0.361208 0.0261037 0.259601
20050 2 0.262208 0.0915503 0.26169
20049 2 0.26137 0.0147099 0.257058
17497 2 0.361265 0.076034 0.255356
20040 6 0.282191 0.0114002 0.305912
17500 4 0.362797 0.0492755 0.255037
20073 5 0.25777 0.1169 0.290944
20124 4 0.259915 0.116443 0.261616
17524 5 0.317541 0.119046 0.282255
17441 2 0.33484 0.120921 0.291172
17427 4 0.360103 0.00903565 0.250865
20005 7 0.270078 0.0112989 0.311664
20004 7 0.294601 0.0118119 0.310712
17502 5 0.37913 0.0826621 0.263277
17428 5 0.379813 0.0192144 0.267398
17437 1 0.382105 0.0823067 0.284279
14822 3 0.423735 0.0518959 0.304039
14891 4 0.433721 0.0847647 0.293395
14817 2 0.431227 0.0590398 0.292434
14887 2 0.432564 0.109988 0.289673
14823 5 0.45315 0.0489444 0.28977
17418 1 0.384809 0.0191625 0.28542
14893 5 0.454994 0.118033 0.285515
14897 5 0.416206 0.0518559 0.283647
14892 5 0.415179 0.112434 0.280705
14866 1 0.483455 0.0834888 0.285323
14814 1 0.479912 0.0212812 0.28794
14873 5 0.476212 0.0182124 0.268788
14876 5 0.476972 0.0844443 0.265863
14815 1 0.413087 0.048686 0.264111
14943 1 0.406948 0.114223 0.262548
14954 5 0.436092 0.0821975 0.262209
17412 6 0.392755 0.0180309 0.305303
14869 2 0.45838 0.089533 0.257269
14872 5 0.437814 0.0132239 0.264084
14867 2 0.460624 0.010015 0.259574
14948 4 0.458503 0.1152 0.253782
14860 6 0.491187 0.0840396 0.305573
17379 7 0.400524 0.0317314 0.306647
15286 9 0.433566 0.0408802 0.306984
14890 5 0.426533 0.125856 0.297914
14828 7 0.50404 0.0939576 0.306457
17380 7 0.405324 0.00745134 0.3058
25296 2 0.0609422 0.142368 0.264548
25241 1 0.0811373 0.148208 0.292355
25249 3 0.0221681 0.178288 0.306436
25360 6 0.0904803 0.210609 0.310699
25320 4 0.0311423 0.210647 0.296698
25317 2 0.0311521 0.235415 0.295103
25295 1 0.0857072 0.209196 0.289952
25250 5 0.0541319 0.177649 0.294028
25244 2 0.029959 0.185173 0.295061
25325 5 0.0129028 0.178705 0.286975
25302 5 0.080768 0.149126 0.27102
25305 5 0.0794633 0.207937 0.270606
22742 1 0.108421 0.175613 0.268614
25301 5 0.0385225 0.151989 0.268604
25242 1 0.0108099 0.176084 0.266546
25376 5 0.0370574 0.215487 0.26638
25298 2 0.0611603 0.21556 0.262375
25289 6 0.0844592 0.145622 0.312365
25366 1 0.00840835 0.239097 0.265817
25498 9 0.0210882 0.190465 0.311293
25371 4 0.0631645 0.239179 0.257931
22690 1 0.112587 0.239743 0.267198
22695 5 0.116021 0.181665 0.288987
25299 5 0.0586075 0.154173 0.253989
22773 5 0.11673 0.242453 0.285944
25322 5 0.0549264 0.243642 0.291523
25304 4 0.058958 0.198224 0.253378
25499 9 0.0234549 0.234601 0.311344
25321 5 0.0103904 0.241743 0.288565
25319 3 0.0269151 0.245687 0.306291
25330 7 0.104264 0.201867 0.310622
22718 6 0.106977 0.196122 0.2518
14330 5 0.446757 0.213912 0.464193
14206 7 0.408696 -0.00306802 0.402311
19771 9 0.207764 0.0056435 0.484937
22697 3 0.133904 0.240204 0.305661
22945 9 0.124914 0.152975 0.309824
22693 3 0.127708 0.168798 0.308314
22694 4 0.133609 0.147704 0.292277
22691 2 0.134394 0.172014 0.29576
22748 4 0.162022 0.17822 0.260666
22674 2 0.162014 0.152904 0.261299
22754 5 0.139742 0.147796 0.266848
20202 5 0.236874 0.209743 0.262901
22672 1 0.189654 0.148584 0.28984
20142 4 0.23456 0.211073 0.29252
20147 5 0.218756 0.177877 0.287076
22696 5 0.158048 0.179787 0.293531
20074 3 0.23223 0.183365 0.306726
20069 2 0.23644 0.186885 0.294286
22689 1 0.181836 0.21027 0.291163
20392 9 0.23357 0.195994 0.31103
20139 2 0.235561 0.236512 0.292531
20067 1 0.211308 0.17994 0.266566
22680 5 0.180761 0.146198 0.269139
22750 5 0.177837 0.208337 0.271715
22749 5 0.13882 0.211592 0.268415
20125 5 0.235649 0.150217 0.26343
22744 2 0.160151 0.203128 0.263596
22737 6 0.186816 0.212639 0.311242
22736 6 0.19873 0.1511 0.311039
22698 5 0.158801 0.242192 0.290637
20190 1 0.206666 0.240469 0.266289
20143 5 0.217477 0.242176 0.28513
20393 9 0.232876 0.235092 0.309397
22705 7 0.208114 0.164421 0.311864
20141 3 0.230637 0.246475 0.304122
22747 5 0.159656 0.219138 0.254235
22692 2 0.135283 0.248552 0.293836
22704 7 0.210278 0.140702 0.309267
22679 3 0.159235 0.143437 0.249701
22702 7 0.194604 0.199702 0.31433
19727 9 0.313314 0.00162826 0.425851
17187 9 0.362192 0.00134122 0.394643
17572 4 0.361162 0.179742 0.256908
20126 5 0.277329 0.152415 0.267832
20075 5 0.258031 0.178232 0.290558
20066 1 0.282655 0.147156 0.288975
17516 2 0.335677 0.171192 0.293717
17518 3 0.336781 0.177935 0.305791
20114 6 0.299907 0.210361 0.308302
17519 4 0.33566 0.145329 0.293461
17521 5 0.35629 0.181964 0.289016
20120 1 0.287644 0.210289 0.288127
17520 5 0.315148 0.180189 0.2881
17595 5 0.315637 0.236865 0.285529
17567 1 0.306087 0.178613 0.266325
20128 5 0.277827 0.207444 0.26721
17577 5 0.334655 0.152336 0.263434
17573 5 0.335656 0.210163 0.262178
17498 2 0.357406 0.154912 0.258978
20121 2 0.258088 0.141338 0.261686
17569 2 0.359216 0.20469 0.258308
20122 2 0.260058 0.214597 0.259103
20196 4 0.262033 0.239979 0.258103
20113 6 0.271834 0.15214 0.308772
17523 5 0.356201 0.239669 0.288486
17515 1 0.311039 0.240504 0.263886
17840 9 0.321563 0.233833 0.306122
17529 7 0.363036 0.197117 0.305676
20144 5 0.258321 0.243177 0.288375
17522 3 0.333928 0.242309 0.304347
17839 9 0.341452 0.164725 0.310177
20082 7 0.262624 0.164344 0.307722
20079 7 0.313583 0.202612 0.30823
20081 7 0.260928 0.140057 0.307473
17530 7 0.359036 0.221888 0.307888
17561 6 0.371146 0.21129 0.307622
15305 9 0.379901 0.155602 0.308803
17574 5 0.375939 0.208297 0.26708
15020 4 0.461328 0.242565 0.255381
17505 5 0.375898 0.148459 0.266607
17514 1 0.38027 0.210857 0.286609
14945 2 0.457797 0.140354 0.256557
14886 1 0.411205 0.178698 0.262785
14894 3 0.391155 0.14856 0.303397
14972 5 0.415782 0.179862 0.280351
14896 5 0.454268 0.182446 0.284772
14888 8 0.422051 0.14858 0.306008
12342 3 0.485749 0.209309 0.304749
14895 4 0.425317 0.171341 0.297961
14964 2 0.431527 0.235736 0.293174
14967 4 0.428562 0.210694 0.292483
14889 2 0.431391 0.186547 0.289272
17496 1 0.385489 0.147342 0.284993
14944 1 0.483596 0.209334 0.284757
14885 1 0.47986 0.148257 0.284694
14953 5 0.48111 0.206611 0.263406
14936 6 0.484825 0.148846 0.305561
14950 5 0.475399 0.145381 0.265299
15025 5 0.438249 0.211031 0.261422
14949 5 0.434751 0.148381 0.260109
14946 2 0.461569 0.217378 0.257818
15015 1 0.408368 0.240493 0.263875
14969 5 0.453556 0.242152 0.288765
14968 5 0.413957 0.244781 0.285646
14966 3 0.428115 0.243079 0.304922
14900 7 0.474343 0.145252 0.31089
12753 9 0.474832 0.212174 0.31139
14383 5 0.468898 0.245171 0.443511
25183 7 0.0875767 0.0160285 0.315388
25257 7 0.0953401 0.0866176 0.318353
24544 6 0.0923481 0.0207308 0.33469
24654 7 0.106634 0.0710982 0.338009
24655 7 0.108667 0.0953816 0.335084
24614 6 0.0975292 0.0834651 0.335929
24820 9 0.0412253 0.0410748 0.337315
24550 1 0.0901465 0.0852377 0.356893
24571 2 0.0380598 0.0595515 0.351724
24576 3 0.0283715 0.0465564 0.341799
24577 5 0.0623925 0.0518215 0.352979
24639 2 0.0363214 0.10927 0.352779
24643 4 0.0382956 0.0851009 0.349756
24644 5 0.0170854 0.11445 0.360591
24645 5 0.05902 0.119077 0.356787
24649 5 0.0235332 0.0533935 0.361471
24568 1 0.08711 0.0225636 0.356024
22022 5 0.121449 0.0561132 0.355947
22097 5 0.119679 0.118937 0.359362
24582 7 0.0824385 0.0287748 0.330215
24581 7 0.104358 0.0318108 0.335286
25186 7 0.0425815 0.0349069 0.31922
25217 6 0.0498816 0.0302747 0.325842
25185 7 0.047631 0.0143705 0.326346
22266 9 0.114143 -0.00194247 0.338051
24560 5 0.0846453 0.0859328 0.376041
1327 7 0.00575446 0.0798579 0.337449
22944 9 0.142274 0.117942 0.310038
20391 9 0.233153 0.1088 0.312914
22633 7 0.158098 0.0568271 0.317736
22267 9 0.146495 0.0482921 0.332264
20415 7 0.239303 0.00924743 0.326971
22024 3 0.133999 0.111843 0.339878
22020 3 0.132851 0.0481594 0.336495
22665 6 0.16769 0.0602461 0.323444
22634 7 0.17892 0.0500981 0.323409
22021 4 0.136925 0.0221251 0.352075
20065 6 0.239014 0.0233888 0.321665
22631 7 0.179049 0.0842199 0.328147
22632 7 0.197323 0.101206 0.331404
19714 9 0.227663 0.0754086 0.335122
22666 6 0.185127 0.0932823 0.33416
19468 3 0.232264 0.108518 0.335176
19398 3 0.22913 0.0601864 0.33721
19466 2 0.236556 0.109579 0.347621
19469 4 0.236421 0.0854486 0.352208
19393 2 0.235261 0.0595999 0.349545
19474 5 0.217358 0.0506004 0.357095
22016 1 0.183721 0.085167 0.353909
22018 2 0.139518 0.0464743 0.348602
22023 5 0.162171 0.0557841 0.351837
22025 5 0.160079 0.116647 0.354054
21925 1 0.189675 0.0205858 0.356641
21991 6 0.185657 0.0104981 0.336716
19470 5 0.216518 0.119843 0.353455
20416 7 0.235397 0.037529 0.327075
19715 9 0.243274 0.115991 0.331486
22019 2 0.137692 0.124916 0.351007