ITEM: TIMESTEP
838000
ITEM: NUMBER OF ATOMS
25520
ITEM: BOX BOUNDS pp pp pp
-4.0124140234629174e-01 6.0099784992346791e+01
-1.9570005714044367e+00 5.9127285845402220e+01
-1.2669722367145006e+01 1.1194545477315630e+02
ITEM: ATOMS id type xs ys zs
25182 6 0.0941253 0.028146 0.154227
25252 6 0.111707 0.0766252 0.153248
25214 3 0.0373839 0.0459409 0.159731
25287 5 0.0337377 0.0517615 0.17813
25283 5 0.0717112 0.117064 0.17116
25282 5 0.0307736 0.114029 0.179725
25281 4 0.0443794 0.0854221 0.167602
25277 2 0.0465879 0.109853 0.169754
25215 5 0.0720344 0.0555454 0.170209
25209 2 0.0481966 0.0600061 0.168884
25188 1 0.101866 0.0848011 0.172331
25458 9 0.0330376 0.0558789 0.153903
25206 1 0.100405 0.0245081 0.174631
25293 7 0.127306 0.0727053 0.151123
2433 1 0.00384808 0.0200399 0.177259
14924 1 0.498552 0.147312 0.17675
25292 7 0.102676 0.0641824 0.151354
25220 7 0.0864805 0.0238706 0.147507
25219 7 0.0809822 0.0363246 0.157491
22906 9 0.135212 0.104107 0.154328
22660 5 0.133871 0.0568795 0.174035
22735 5 0.133594 0.115233 0.173285
22905 9 0.164634 0.0613167 0.152982
22662 3 0.147293 0.114696 0.153706
22658 3 0.151344 0.053838 0.155368
22656 2 0.153863 0.0486343 0.167514
20112 5 0.234227 0.0551478 0.175101
22663 5 0.173881 0.121387 0.168347
22654 1 0.199946 0.0874574 0.171787
22661 5 0.175511 0.0586485 0.170783
22659 4 0.156139 0.0237532 0.16947
22563 1 0.204173 0.0236878 0.174128
22629 6 0.214278 0.0225923 0.153868
22630 6 0.208144 0.0905163 0.15207
22667 7 0.223956 0.0878723 0.152476
22668 7 0.207669 0.106309 0.148224
20108 5 0.233362 0.12012 0.17518
22670 7 0.224781 0.0348341 0.153357
22669 7 0.224889 0.0100545 0.154256
20036 3 0.247356 0.055011 0.155416
20106 3 0.246982 0.124634 0.15531
20107 4 0.249758 0.0891591 0.165262
20352 9 0.252196 0.0665013 0.150293
22657 2 0.149465 0.12528 0.165435
12371 7 0.499484 0.115566 0.219052
20031 2 0.250873 0.0640428 0.167029
20104 2 0.250235 0.113604 0.16634
22482 6 0.261231 0.0882024 0.142571
22517 7 0.256256 0.102114 0.144697
22518 7 0.276828 0.0899216 0.143242
20118 7 0.314756 0.069346 0.151937
20117 7 0.326264 0.0920087 0.153142
20077 6 0.311004 0.0852718 0.152436
17480 3 0.346132 0.0503149 0.155512
17799 9 0.340127 0.0381623 0.153076
17478 2 0.351901 0.0469379 0.168146
20109 5 0.274226 0.119165 0.169168
17482 5 0.333348 0.0567195 0.175357
20037 5 0.274487 0.0545637 0.170016
20011 1 0.30236 0.0874457 0.173136
20028 1 0.298184 0.023748 0.174479
17481 4 0.348869 0.0223023 0.171546
17484 3 0.348931 0.108327 0.158676
20003 6 0.298636 0.00984561 0.153782
20042 7 0.290663 0.0148834 0.147746
17560 5 0.33417 0.11732 0.176834
17479 2 0.350791 0.123878 0.168639
17800 9 0.361811 0.0996548 0.157894
17485 5 0.374354 0.12107 0.172573
17483 5 0.375958 0.0540765 0.170569
17489 7 0.380213 0.0699359 0.154568
17490 7 0.397245 0.0781954 0.14755
17451 6 0.391877 0.0809832 0.154792
14856 3 0.446582 0.0492224 0.158819
15246 9 0.447617 0.0599882 0.153028
14929 4 0.450456 0.0851158 0.169576
14926 2 0.452174 0.110269 0.169432
14851 2 0.45089 0.0597854 0.169625
14931 5 0.474013 0.116678 0.174254
14857 5 0.473193 0.0547458 0.174282
17476 1 0.399058 0.0838158 0.1742
14934 5 0.43479 0.053616 0.179004
14930 5 0.434506 0.119117 0.177419
17384 1 0.403802 0.0205198 0.175618
17450 6 0.40907 0.0237216 0.154849
17492 7 0.421108 0.03397 0.154008
14928 3 0.451756 0.118156 0.157628
17491 7 0.418487 0.0102151 0.154276
15031 7 0.426708 0.240578 0.247757
14848 1 0.498802 0.021743 0.177915
15245 9 0.452537 0.0109218 0.161378
25280 5 0.0383764 0.125106 0.161192
1933 1 -0.000180218 0.146333 0.177809
25290 7 0.107491 0.131262 0.149823
25291 7 0.116887 0.152978 0.154571
2033 7 0.043294 0.140769 0.134985
25253 6 0.103025 0.14624 0.152044
2032 7 0.0421327 0.166682 0.13689
1995 6 0.0345147 0.152153 0.139518
25275 1 0.0952343 0.147266 0.172982
25278 8 0.0287878 0.14879 0.15435
22957 9 0.0909697 0.226933 0.153185
22732 3 0.100966 0.21504 0.156201
25285 4 0.0385241 0.171991 0.161516
25359 5 0.0300327 0.179848 0.180291
25356 5 0.0726298 0.239547 0.174138
25354 4 0.0454901 0.212342 0.168927
25351 2 0.0478066 0.236752 0.172259
25286 5 0.0699035 0.178762 0.174134
25279 2 0.0461003 0.186127 0.170959
25259 1 0.101345 0.213094 0.174959
25355 5 0.0322166 0.241482 0.18134
25394 6 0.0613448 0.234099 0.142715
25432 7 0.0524013 0.24362 0.14743
25433 7 0.0566087 0.220171 0.145107
22740 7 0.19553 0.142009 0.147496
22741 7 0.219482 0.141565 0.149927
1963 7 0.13592 0.233048 0.135552
1962 7 0.159635 0.233858 0.141361
22726 8 0.1323 0.216115 0.154456
22730 5 0.130369 0.180568 0.177793
1927 6 0.145179 0.22397 0.140841
22700 6 0.206267 0.149747 0.151712
22636 1 0.201711 0.150947 0.173085
22729 4 0.144832 0.150907 0.165785
22733 4 0.140661 0.237716 0.16352
20189 7 0.193414 0.200664 0.146921
20148 6 0.19018 0.208429 0.153805
22728 5 0.141539 0.191513 0.160589
22725 2 0.146957 0.174934 0.169331
20178 5 0.232128 0.241599 0.176553
20183 5 0.233057 0.181394 0.174529
22723 1 0.199253 0.210031 0.173707
22731 5 0.170348 0.180394 0.172328
20188 7 0.178453 0.200728 0.156667
20110 3 0.253267 0.171739 0.156619
22734 5 0.173462 0.240683 0.174969
22807 5 0.13187 0.242763 0.181805
20353 9 0.245309 0.1408 0.155956
20354 9 0.253531 0.180439 0.150331
20173 2 0.24968 0.238218 0.167601
20177 4 0.24796 0.21373 0.163736
22727 2 0.149251 0.249455 0.17328
20105 2 0.250474 0.188693 0.166672
17555 4 0.345388 0.148629 0.166079
20102 1 0.298156 0.149352 0.174697
17554 3 0.348072 0.183089 0.155305
17801 9 0.349161 0.198368 0.155366
17558 3 0.351845 0.231175 0.156546
17552 2 0.348655 0.174117 0.167119
17556 5 0.328974 0.183725 0.17279
20111 5 0.27319 0.182704 0.172015
20084 1 0.304106 0.211418 0.173931
20179 5 0.273565 0.241957 0.171712
17631 5 0.336309 0.239314 0.175791
17553 2 0.353143 0.247542 0.167433
17802 9 0.360454 0.239486 0.151663
17557 5 0.372004 0.178647 0.171884
14939 7 0.48344 0.159438 0.157807
17559 5 0.37678 0.246908 0.172404
15247 9 0.466556 0.123573 0.155591
17565 7 0.427464 0.134352 0.153068
17566 7 0.406527 0.145084 0.147611
17564 7 0.425704 0.206703 0.155685
17563 7 0.409159 0.209658 0.146559
14938 7 0.453751 0.195958 0.148284
14937 7 0.472285 0.211746 0.14477
17525 6 0.4125 0.141048 0.154641
17459 1 0.402093 0.146813 0.17483
17526 6 0.409158 0.208416 0.154329
14899 6 0.458172 0.206594 0.142975
15248 9 0.445019 0.156205 0.158608
15002 3 0.446186 0.240799 0.157592
14932 3 0.453176 0.169259 0.158188
15000 2 0.453518 0.231309 0.168762
15003 4 0.454926 0.205905 0.166605
14927 2 0.451993 0.181748 0.169667
15005 5 0.476152 0.241148 0.170827
14933 5 0.474014 0.174344 0.174547
15004 5 0.43485 0.231778 0.176751
17550 1 0.397786 0.207668 0.174121
15008 5 0.43288 0.17716 0.177044
15249 9 0.452542 0.232303 0.151905
14919 6 0.417174 0.186161 0.243734
25236 7 0.0329869 0.0710352 0.246203
25471 9 0.04088 0.0148156 0.247434
25198 5 0.09879 0.0837193 0.194093
25195 5 0.0987865 0.0243143 0.192703
25268 5 0.0588364 0.0843747 0.198872
25258 1 0.0264999 0.114628 0.197648
25207 1 0.0345526 0.0524183 0.198318
25191 2 0.0820837 0.0915118 0.202268
25263 4 0.0843945 0.116359 0.204257
25197 4 0.0838291 0.0771901 0.212856
25192 5 0.0793375 0.0324779 0.210414
25196 3 0.0423705 0.0567095 0.216753
25190 8 0.0728948 0.0535925 0.219697
25510 9 0.0329022 0.0684157 0.220937
25517 7 0.0780669 0.0308535 0.237601
25240 6 0.0834499 0.0450231 0.233981
22685 7 0.0865924 0.112472 0.220493
25506 7 0.0796681 0.0582109 0.239907
25194 5 0.0579582 0.0225702 0.196888
25189 2 0.0807812 0.0162674 0.200785
25308 6 0.0246832 0.108674 0.218037
25272 7 0.0319687 0.113865 0.2243
25201 6 0.0233044 0.0583596 0.246589
25271 7 0.0107279 0.103629 0.220405
22649 6 0.0883259 0.121717 0.22675
22651 7 0.114528 0.0707377 0.214354
22577 7 0.112659 0.0298077 0.235033
25309 7 0.0516465 0.112632 0.241147
25237 7 0.0349408 0.0456092 0.245696
25311 7 0.00952761 0.122986 0.240029
22686 7 0.116931 0.0647777 0.241396
22648 6 0.109209 0.0685163 0.24808
25231 3 0.0626582 0.0872085 0.248702
25512 9 0.000798386 0.185105 0.240338
9777 7 0.476575 0.248311 0.226528
25238 7 0.0135619 -0.0022719 0.23961
22612 6 0.126325 0.0219977 0.235265
14862 7 0.499326 0.0236755 0.151659
22958 9 0.124009 0.131884 0.216517
2441 5 0.000906059 0.0185123 0.200557
25205 7 0.017101 0.0107236 0.2191
22635 1 0.126362 0.0587322 0.194672
22683 6 0.128326 0.0615942 0.214206
14898 6 0.498206 0.151245 0.156428
17584 6 0.381608 0.240667 0.230474
22576 7 0.125929 0.0120265 0.229583
22650 7 0.136615 0.0636791 0.22131
20132 7 0.214892 0.110742 0.245149
22655 1 0.130839 0.117694 0.192841
20062 7 0.142811 0.0468856 0.236575
22931 9 0.194781 0.0156345 0.212561
22643 5 0.199182 0.0903595 0.192459
20023 6 0.149539 0.0607972 0.233667
20061 7 0.163714 0.0555942 0.2307
22572 5 0.194533 0.022304 0.193825
20083 1 0.225399 0.118836 0.194656
20029 1 0.231624 0.0553297 0.195457
22642 5 0.157983 0.0895297 0.193285
20063 7 0.187508 0.0514787 0.22049
22637 2 0.179124 0.0829713 0.198886
22641 4 0.179762 0.058016 0.200889
22565 2 0.177178 0.0329705 0.200461
22640 5 0.175287 0.0967497 0.209022
20060 6 0.232676 0.0568014 0.216161
20022 6 0.192407 0.0633587 0.225963
20064 7 0.186954 0.0750828 0.221845
22647 5 0.154401 0.0238068 0.19797
22571 3 0.181293 0.0242585 0.212384
22638 8 0.163926 0.11792 0.216993
20024 7 0.218953 0.0587788 0.221347
17471 6 0.219768 0.0183329 0.235624
22954 7 0.158547 0.0989356 0.235836
17510 7 0.212636 0.0318079 0.238715
22919 9 0.160609 0.0781893 0.24648
17509 7 0.234986 0.019849 0.237761
20101 7 0.224631 0.109705 0.229577
20100 7 0.214916 0.089027 0.233186
20134 7 0.194356 0.0643536 0.242811
22688 6 0.168752 0.110815 0.231893
22644 3 0.134989 0.12161 0.212142
20025 7 0.241662 0.045949 0.220333
20130 6 0.226815 0.0993385 0.235441
22653 7 0.14437 0.0100558 0.217108
22682 6 0.133931 -0.00152643 0.216163
22918 9 0.153288 0.0266554 0.247825
20133 7 0.188292 0.107604 0.248762
20123 3 0.261372 0.154327 0.249411
22965 7 0.167269 0.124167 0.237267
20366 9 0.25263 0.0896801 0.24534
20169 7 0.224513 0.201536 0.248707
14991 5 0.455391 0.212323 0.200211
17548 7 0.258237 0.118515 0.231985
20016 5 0.253147 0.0253237 0.198538
20095 5 0.254104 0.0868764 0.198355
17456 7 0.293904 0.0335107 0.24622
20020 5 0.294318 0.0852045 0.193014
20017 5 0.292678 0.0265705 0.195085
17477 1 0.327893 0.11802 0.196589
17458 1 0.324268 0.0541261 0.194904
17464 5 0.352497 0.0890127 0.197972
20013 2 0.277749 0.0916931 0.201718
20379 9 0.272783 0.0791839 0.217242
20089 4 0.279983 0.116047 0.205126
20019 3 0.28357 0.07566 0.211816
20378 9 0.270869 0.037452 0.216161
17466 6 0.32305 0.0459245 0.215557
17493 7 0.307354 0.048505 0.2166
17494 7 0.324767 0.0302459 0.215913
14960 7 0.314715 0.0713698 0.236398
14918 6 0.3259 0.0822838 0.233203
14959 7 0.332682 0.0740007 0.22792
17469 5 0.351869 0.0211144 0.200095
20014 3 0.277595 0.0237042 0.214591
20012 2 0.275043 0.0172265 0.202595
17503 6 0.305324 0.044034 0.246012
17457 7 0.317097 0.0334931 0.244204
17499 3 0.357398 0.0887164 0.247697
14846 7 0.368702 0.0666684 0.237289
17813 9 0.343743 0.0853698 0.243806
17512 7 0.275907 0.00280491 0.225438
17472 7 0.310037 0.121405 0.217688
17860 7 0.369955 0.00810355 0.231334
17508 6 0.324607 0.116312 0.216851
17473 7 0.324314 0.106599 0.222856
17582 7 0.317272 0.112757 0.240983
17544 6 0.307475 0.122616 0.24468
17463 4 0.372608 0.0559173 0.200925
17386 2 0.376567 0.0307907 0.202323
17583 7 0.301214 0.129899 0.23874
14847 7 0.376973 0.0713781 0.225832
17549 7 0.270148 0.133992 0.2235
17460 2 0.374795 0.0807511 0.20207
14878 6 0.37757 0.0607807 0.23145
17825 9 0.3799 0.0375153 0.218565
17826 9 0.374631 0.10395 0.214435
14845 7 0.406009 0.00393629 0.217349
17462 3 0.380272 0.0887287 0.214015
17391 3 0.383477 0.0246134 0.214305
15272 9 0.493226 0.011052 0.218934
14840 5 0.493913 0.0841726 0.198405
17465 5 0.393093 0.0876175 0.193804
14906 1 0.424457 0.116836 0.196435
17392 5 0.396091 0.0220488 0.195314
14849 1 0.430501 0.0550556 0.197822
14917 5 0.454067 0.0854942 0.200695
14837 5 0.451967 0.026319 0.203182
14911 4 0.480847 0.117863 0.205464
14834 2 0.475511 0.092836 0.205302
14839 3 0.479086 0.0843791 0.216961
14955 6 0.420382 0.063675 0.216304
15273 9 0.472554 0.094912 0.222202
14922 7 0.430724 0.0616881 0.222733
14923 7 0.405727 0.0654386 0.219459
15308 7 0.467385 0.0555313 0.227174
14884 6 0.453971 0.0469583 0.230822
15297 7 0.459912 0.0300622 0.229172
15303 9 0.404325 0.0547963 0.24189
14868 8 0.446038 0.0527831 0.245422
14835 3 0.486825 0.024092 0.2155
14833 2 0.475281 0.0166299 0.204653
14838 5 0.49119 0.0212817 0.195562
12366 6 0.461968 0.106624 0.233438
14914 6 0.418674 0.119099 0.216772
14941 7 0.416186 0.113182 0.223496
14874 3 0.416788 0.057456 0.247712
14951 6 0.394806 0.113914 0.247132
14905 7 0.389197 0.100083 0.244597
12408 7 0.466022 0.0972942 0.239928
12407 7 0.463512 0.120646 0.236779
14942 7 0.40573 0.129849 0.215505
22684 7 0.0734671 0.123367 0.230023
25343 6 0.00239993 0.240114 0.245662
25270 6 0.0466093 0.124405 0.236172
22760 7 0.107508 0.124718 0.238551
22717 6 0.111779 0.129114 0.245828
22795 7 0.109106 0.223868 0.219609
22830 7 0.0548365 0.240361 0.230198
22791 6 0.0670916 0.243268 0.235098
25310 7 0.0469442 0.13691 0.241027
22829 7 0.0618618 0.234444 0.241246
25347 7 0.00844314 0.185258 0.218528
25348 7 0.0122936 0.160867 0.21838
22718 6 0.10389 0.192688 0.245074
25484 9 0.0847313 0.147473 0.218211
25267 5 0.0929098 0.209522 0.19484
25265 5 0.0947018 0.147412 0.191685
25303 3 0.0127605 0.18511 0.245842
25260 2 0.0799693 0.141318 0.20169
25264 5 0.0553528 0.145232 0.200186
25332 1 0.0257863 0.239231 0.200994
25276 1 0.0282208 0.176793 0.198376
25342 5 0.0546796 0.206252 0.201143
25337 4 0.0773758 0.239081 0.205641
25261 2 0.0777125 0.21376 0.203876
25266 3 0.0880132 0.203956 0.214092
25262 3 0.0874947 0.155134 0.211349
25485 9 0.0839395 0.188291 0.215052
22720 7 0.113534 0.17213 0.216819
25377 6 0.0208507 0.173337 0.218489
25507 7 0.0701849 0.203298 0.229412
25518 7 0.0511758 0.188781 0.222574
25314 6 0.0606388 0.188214 0.229984
25297 8 0.0438528 0.184031 0.242735
22751 3 0.116487 0.248381 0.24701
22758 7 0.116095 0.189574 0.239481
22757 7 0.0897601 0.190897 0.240958
25378 6 0.0216377 0.238171 0.220883
25345 7 0.0118592 0.226662 0.222924
22825 6 0.123074 0.232351 0.220049
17798 9 0.331975 -0.00213158 0.155291
25382 7 0.00614692 0.241078 0.237999
22756 6 0.127563 0.180487 0.215961
22920 9 0.172374 0.137796 0.250315
20131 6 0.22136 0.132844 0.213902
22796 7 0.13342 0.219639 0.219916
22759 7 0.12652 0.13344 0.245365
22706 1 0.124757 0.178562 0.195688
20099 7 0.205439 0.139295 0.211798
14921 7 0.422185 0.198095 0.22324
20098 7 0.230268 0.14586 0.215649
22719 7 0.134227 0.181732 0.223358
22724 1 0.127293 0.238949 0.200301
22646 5 0.194516 0.149693 0.193609
22713 5 0.196091 0.210188 0.193687
20103 1 0.229778 0.179816 0.194955
22716 5 0.154733 0.152414 0.195792
20154 1 0.227347 0.243051 0.195158
22722 7 0.146455 0.169013 0.240208
22645 4 0.177469 0.14201 0.21092
22712 5 0.153674 0.210769 0.200257
22639 2 0.17655 0.156095 0.201453
22708 2 0.17839 0.205982 0.202482
22711 4 0.178323 0.180954 0.204296
22710 3 0.186694 0.215334 0.213276
22932 9 0.188381 0.202431 0.218502
20204 6 0.225778 0.23832 0.216617
20092 3 0.236468 0.177489 0.214395
22721 7 0.147207 0.193626 0.242429
20406 9 0.223629 0.182045 0.220096
22745 8 0.146579 0.24525 0.244417
20166 6 0.186777 0.181735 0.227094
20206 7 0.172216 0.180191 0.229946
22755 6 0.14526 0.183312 0.236358
20205 7 0.187095 0.173773 0.220033
22762 6 0.165991 0.24743 0.232445
20203 6 0.208218 0.200072 0.247283
20170 7 0.206813 0.194279 0.239838
20168 7 0.211207 0.230923 0.218264
20167 7 0.233742 0.234391 0.223373
22955 7 0.170114 0.235997 0.226801
22679 3 0.159115 0.146293 0.249909
17504 3 0.361451 0.14611 0.248613
17533 2 0.377896 0.202212 0.199885
15275 9 0.475055 0.209152 0.220494
17580 7 0.321802 0.235708 0.242882
17578 6 0.270856 0.128971 0.231164
17571 3 0.356938 0.214793 0.246794
17581 7 0.296511 0.239643 0.240628
17545 6 0.307853 0.240736 0.246166
20090 5 0.254497 0.14135 0.196515
20164 5 0.257315 0.211511 0.19692
20367 9 0.263307 0.141692 0.244352
17651 6 0.280523 0.238818 0.227581
17617 7 0.277495 0.226326 0.223296
20091 5 0.293304 0.149608 0.193385
20094 5 0.298809 0.21373 0.195028
17531 1 0.325176 0.17929 0.196458
17551 1 0.332212 0.241024 0.1957
17538 5 0.35386 0.20171 0.195752
17543 5 0.354686 0.148496 0.198317
20085 2 0.276852 0.141116 0.201915
20086 8 0.266102 0.179824 0.218805
20087 2 0.27838 0.218942 0.202096
20159 4 0.279534 0.244485 0.204646
20088 5 0.274748 0.156015 0.211468
20093 4 0.27449 0.203126 0.211174
17547 7 0.340899 0.174964 0.21989
17540 3 0.336148 0.246004 0.21513
17579 6 0.329695 0.184207 0.216948
17546 7 0.329648 0.194618 0.223088
20136 6 0.279147 0.183541 0.232827
20413 7 0.273524 0.197093 0.23755
20402 7 0.278469 0.170277 0.238142
17534 8 0.36686 0.240424 0.216887
14996 7 0.363315 0.183042 0.235405
17814 9 0.363371 0.156936 0.242693
15026 6 0.368862 0.170746 0.231234
17815 9 0.356352 0.230753 0.246524
17461 2 0.377248 0.152707 0.202916
12291 6 0.442272 0.153969 0.230473
14912 5 0.453429 0.149524 0.200367
15274 9 0.477529 0.170197 0.214906
17827 9 0.371212 0.149973 0.219659
9776 7 0.450492 0.246565 0.226726
14920 7 0.433764 0.177521 0.221405
14915 3 0.483163 0.202606 0.214287
9739 6 0.463706 0.244248 0.231038
14979 1 0.425338 0.239447 0.195184
12352 7 0.49049 0.168239 0.242647
17468 5 0.395197 0.143008 0.19588
17536 5 0.374469 0.218482 0.208493
17861 7 0.382241 0.225502 0.234989
14910 3 0.47728 0.153784 0.2161
14985 4 0.481904 0.241637 0.2048
14947 3 0.467415 0.151391 0.248911
14992 6 0.411216 0.239711 0.245985
12353 7 0.49078 0.192931 0.242013
15261 9 0.454851 0.155554 0.243912
14958 7 0.428808 0.17616 0.240299
14952 3 0.462456 0.209414 0.246931
14913 5 0.494905 0.152386 0.197662
15262 9 0.460215 0.220668 0.241546
14904 7 0.381599 0.123515 0.246228
14925 1 0.43022 0.179596 0.197286
14997 7 0.384664 0.173584 0.230917
17467 3 0.377184 0.140748 0.214213
12329 7 0.435921 0.140786 0.228784
14909 2 0.479061 0.216258 0.204054
14908 2 0.476315 0.143479 0.204701
14956 6 0.424964 0.187641 0.217183
17537 4 0.382078 0.177328 0.203739
14916 5 0.496409 0.211259 0.195399
17539 5 0.394296 0.207466 0.191275
15030 7 0.411133 0.249159 0.239656
14957 7 0.426204 0.196447 0.247679
12328 7 0.45708 0.152909 0.227388
17854 9 0.326076 0.248888 0.221602
20041 7 0.288096 0.00076471 0.157237
20365 9 0.256556 0.0457533 0.249832
20051 3 0.259256 0.030283 0.249925
25472 9 0.0791779 0.0867243 0.248343
20097 6 0.200552 0.118121 0.249338
20096 6 0.196975 0.0553265 0.248729
25178 3 0.0176447 0.0560919 0.305215
25245 3 0.0176198 0.119775 0.303771
25251 5 0.0106288 0.0573251 0.285208
25246 4 0.0293412 0.0881498 0.293516
25243 2 0.024826 0.112283 0.292556
25224 1 0.0780014 0.0872775 0.288477
25179 5 0.0503627 0.0534585 0.292975
25173 2 0.0266667 0.0623769 0.294221
25170 1 0.0762702 0.0247787 0.290478
25232 5 0.0726297 0.0888816 0.269225
25230 5 0.074953 0.0306007 0.269065
22671 1 0.103904 0.0568658 0.268342
25171 1 0.00923729 0.0597576 0.26612
25229 5 0.0328114 0.0240754 0.266024
25306 5 0.0331815 0.0886234 0.263393
25226 2 0.0560621 0.0949349 0.260248
25225 2 0.0564935 0.0194703 0.262582
22619 1 0.106422 0.121774 0.265857
25300 4 0.0579548 0.120329 0.257646
22699 5 0.107645 0.115127 0.286924
22624 5 0.111921 0.0571125 0.286779
25496 9 0.0208803 0.0407905 0.307246
25497 9 0.017751 0.106823 0.308782
25218 6 0.0706945 0.0224516 0.310239
25294 1 0.000776316 0.119058 0.265034
25247 5 0.0069158 0.116774 0.28407
25184 7 0.0568599 0.0139588 0.310207
22622 3 0.11669 0.065671 0.306808
25495 9 0.00989938 0.00866431 0.307311
25248 5 0.048693 0.121834 0.289427
25174 3 0.0251922 0.00414588 0.306867
25257 7 0.0904257 0.0788232 0.312398
25288 6 0.0786381 0.0882688 0.308592
22623 4 0.126545 0.0281978 0.298812
22626 3 0.119246 0.121457 0.305782
22944 9 0.114432 0.106508 0.307236
22620 2 0.126809 0.053594 0.296447
22681 5 0.13311 0.0239699 0.267075
19999 4 0.224756 0.0494146 0.305516
19993 2 0.229075 0.0664611 0.296901
20068 2 0.227627 0.116386 0.296684
20071 4 0.227768 0.0909703 0.298897
22625 5 0.150147 0.060452 0.294637
22627 5 0.148874 0.118218 0.291106
22618 1 0.175669 0.0900159 0.291107
20076 5 0.212201 0.0617142 0.287975
22600 1 0.180978 0.0292265 0.292447
22609 5 0.173575 0.0316506 0.273102
22678 5 0.171225 0.0919237 0.271113
19990 1 0.208915 0.0598187 0.269088
22677 5 0.131165 0.0936015 0.265537
20129 5 0.233543 0.0879203 0.266351
20053 5 0.232617 0.027922 0.266625
22602 2 0.155304 0.034016 0.264391
22673 2 0.15428 0.0839315 0.263175
22676 4 0.152301 0.0589748 0.262751
20119 1 0.203421 0.120928 0.269741
20072 5 0.211257 0.120983 0.287822
22675 3 0.159852 0.0900685 0.251519
19994 5 0.222611 0.00444552 0.304707
22608 3 0.163917 0.0246337 0.2537
19998 3 0.186977 0.0259069 0.311875
22545 2 0.128555 0.00339118 0.294778
22665 6 0.183667 0.100634 0.311377
20135 7 0.185853 0.0440788 0.248139
20000 5 0.253041 0.0630615 0.29299
20073 5 0.251773 0.120305 0.292887
20049 2 0.255068 0.0203132 0.261195
20124 4 0.258678 0.120107 0.260572
17440 8 0.318332 0.0893152 0.311161
17446 3 0.288219 0.0882211 0.309348
17442 5 0.325398 0.068641 0.301883
17447 4 0.324969 0.111815 0.303008
17443 4 0.327218 0.0279439 0.297444
17439 2 0.329964 0.0525033 0.293325
20048 1 0.283748 0.0897238 0.289774
19989 1 0.277332 0.0281595 0.288552
17445 5 0.35393 0.0569353 0.289731
17444 5 0.312898 0.0563309 0.284827
20057 5 0.274465 0.0873093 0.268725
17495 1 0.303352 0.0581244 0.266501
17506 5 0.332316 0.0251478 0.266916
20054 5 0.272132 0.0292092 0.268464
17438 1 0.307243 0.120597 0.26574
17501 5 0.332529 0.0904378 0.263338
17421 2 0.355398 0.0307349 0.262643
20050 2 0.255372 0.094744 0.261621
17497 2 0.355429 0.0813533 0.259433
17500 4 0.355499 0.0558949 0.259298
17448 5 0.352842 0.118054 0.289676
20040 6 0.280233 0.0270417 0.308428
11724 6 0.499122 0.174634 0.39946
17427 4 0.356128 0.0135397 0.253984
17369 2 0.328472 0.00248989 0.296536
17524 5 0.312785 0.119476 0.284607
21939 7 0.132417 0.00787323 0.403206
14241 6 0.41471 0.00123337 0.397838
17502 5 0.375382 0.0896516 0.26587
20081 7 0.28369 0.120972 0.311571
17428 5 0.374249 0.0244746 0.270084
17437 1 0.377662 0.0884251 0.286814
17418 1 0.383756 0.025027 0.289717
14822 3 0.419026 0.0544486 0.307772
14891 4 0.428486 0.0873792 0.296305
14817 2 0.428843 0.0625724 0.296751
14887 2 0.427691 0.11186 0.29334
14823 5 0.451721 0.053097 0.293755
14893 5 0.451765 0.118426 0.290401
14897 5 0.413268 0.0555845 0.287775
14892 5 0.413134 0.1149 0.283559
14866 1 0.481948 0.0848487 0.290384
14814 1 0.476081 0.0233105 0.290538
14873 5 0.476158 0.0221269 0.270521
14876 5 0.477028 0.0832415 0.270203
14815 1 0.409599 0.0556074 0.267133
14943 1 0.405742 0.11803 0.265672
14954 5 0.437122 0.0846506 0.265018
17412 6 0.389165 0.0201278 0.310398
14869 2 0.460636 0.0904129 0.261552
14872 5 0.433607 0.0181047 0.2693
14867 2 0.45563 0.0145934 0.263603
14948 4 0.462874 0.115733 0.259003
14860 6 0.485098 0.0875329 0.311128
14870 5 0.453044 0.0309944 0.25418
17380 7 0.403902 0.0117617 0.310185
17379 7 0.395702 0.0351812 0.312184
14890 5 0.420982 0.127414 0.301866
14828 7 0.495742 0.100134 0.310884
14875 4 0.46167 0.0757362 0.251446
25296 2 0.0531932 0.145086 0.260373
25241 1 0.0736537 0.150142 0.288612
25249 3 0.0176268 0.179795 0.305806
25360 6 0.0880777 0.215979 0.308579
25320 4 0.0284245 0.212867 0.295617
25317 2 0.0263581 0.238015 0.293367
25295 1 0.0787053 0.214677 0.288232
25250 5 0.0487384 0.179669 0.292443
25244 2 0.0253191 0.187999 0.294363
25325 5 0.0101271 0.180944 0.285136
25302 5 0.0710393 0.151601 0.268442
25305 5 0.0755487 0.215786 0.267458
22742 1 0.10095 0.181899 0.265181
25301 5 0.0294645 0.14762 0.264394
25242 1 0.00737526 0.185075 0.266005
25376 5 0.0352245 0.214567 0.266388
25298 2 0.0555831 0.221698 0.260532
25371 4 0.0567567 0.246164 0.257598
22690 1 0.107966 0.246519 0.264831
22695 5 0.106581 0.184479 0.286448
25331 7 0.0993924 0.226694 0.310634
25299 5 0.0507976 0.160964 0.251086
25330 7 0.095608 0.201769 0.308257
25499 9 0.0110674 0.244113 0.308341
25498 9 0.0218181 0.189902 0.311376
22697 3 0.123699 0.246942 0.305034
25289 6 0.0771826 0.142637 0.30924
22945 9 0.114818 0.166056 0.309243
22693 3 0.117313 0.17927 0.305797
25322 5 0.0479982 0.24554 0.289046
22773 5 0.110396 0.240671 0.286176
25255 7 0.0908398 0.134466 0.306412
22694 4 0.123583 0.149974 0.292429
22691 2 0.124532 0.175341 0.293845
25321 5 0.00914346 0.246007 0.285465
24877 7 0.00296464 0.104168 0.488756
25304 4 0.0512589 0.207477 0.251067
20070 3 0.221804 0.128962 0.307358
21536 7 0.249886 0.251581 0.493461
22621 2 0.125424 0.125295 0.293877
22748 4 0.159842 0.184265 0.25877
22674 2 0.155395 0.158164 0.260869
22754 5 0.132847 0.151583 0.264663
20202 5 0.233581 0.211597 0.266667
22672 1 0.178901 0.151206 0.289875
20142 4 0.224616 0.20958 0.296646
20147 5 0.207828 0.174625 0.288762
22696 5 0.149255 0.180779 0.292056
20074 3 0.226376 0.175285 0.30664
20069 2 0.227795 0.184661 0.294835
22689 1 0.176125 0.211612 0.288995
20139 2 0.227233 0.234902 0.295084
20067 1 0.206506 0.182427 0.266605
22680 5 0.171605 0.151672 0.269954
22750 5 0.173644 0.213436 0.270326
22749 5 0.13195 0.208227 0.265567
20125 5 0.233683 0.153533 0.264383
22744 2 0.156041 0.207845 0.262021
22737 6 0.184576 0.203926 0.30882
22698 5 0.152499 0.240244 0.290618
20190 1 0.20432 0.244574 0.266851
22736 6 0.178325 0.148298 0.311312
20391 9 0.225331 0.144422 0.30662
20141 3 0.221628 0.245534 0.30668
22747 5 0.154073 0.2254 0.253799
22704 7 0.193902 0.144395 0.311328
20143 5 0.208287 0.243418 0.288209
20392 9 0.232378 0.186444 0.311379
20393 9 0.22452 0.235184 0.311942
22702 7 0.200751 0.201283 0.308452
22703 7 0.180089 0.192649 0.313487
17441 2 0.330826 0.125342 0.293593
20075 5 0.251794 0.179808 0.291356
20144 5 0.251206 0.24031 0.291224
20121 2 0.256929 0.145216 0.260736
20122 2 0.256197 0.217035 0.261933
17572 4 0.361754 0.18121 0.257947
20126 5 0.275544 0.15387 0.267717
20066 1 0.277323 0.149002 0.290516
17516 2 0.329338 0.175198 0.296559
17518 3 0.328926 0.183054 0.308134
20114 6 0.284164 0.218342 0.310675
17519 4 0.328655 0.149524 0.296816
17521 5 0.351951 0.181765 0.291914
20120 1 0.281602 0.210694 0.289914
17520 5 0.308482 0.182709 0.290484
17595 5 0.312401 0.245071 0.284177
17567 1 0.305415 0.180199 0.267672
20128 5 0.274924 0.210096 0.269379
17577 5 0.33469 0.154771 0.263765
17573 5 0.334501 0.209195 0.263622
17498 2 0.358524 0.157156 0.259681
17569 2 0.357451 0.20654 0.258665
20196 4 0.25825 0.241856 0.260206
20113 6 0.287034 0.135885 0.309241
17515 1 0.308137 0.243223 0.265994
17839 9 0.319815 0.196421 0.309123
17522 3 0.325749 0.236971 0.303516
20080 7 0.299816 0.224302 0.309224
17840 9 0.340515 0.231354 0.306142
17523 5 0.352781 0.244244 0.289063
20082 7 0.303199 0.136093 0.307515
17530 7 0.358749 0.198125 0.303839
17561 6 0.369268 0.209407 0.306524
1332 3 0.00338883 0.0544266 0.424709
20368 9 0.258253 0.18621 0.253848
17517 2 0.329511 0.248922 0.292783
17574 5 0.372836 0.216592 0.266633
17505 5 0.374688 0.149335 0.268293
17514 1 0.376683 0.212081 0.286725
17496 1 0.380878 0.151042 0.287682
15020 4 0.455349 0.243014 0.256893
14945 2 0.459067 0.140678 0.259289
14886 1 0.410298 0.180068 0.264074
14894 3 0.383859 0.149065 0.307352
14972 5 0.41156 0.182296 0.282082
14896 5 0.449797 0.180903 0.287446
14888 8 0.414224 0.150795 0.310257
12342 3 0.479086 0.214109 0.304936
14895 4 0.418612 0.171488 0.300693
14964 2 0.428168 0.23655 0.293566
14967 4 0.424057 0.211845 0.29587
14889 2 0.426465 0.186433 0.291639
14944 1 0.480201 0.212721 0.286307
14885 1 0.475149 0.149515 0.28703
14953 5 0.475766 0.213599 0.266436
14936 6 0.480843 0.151028 0.308055
14950 5 0.473714 0.147884 0.268478
15025 5 0.434979 0.209063 0.261164
14949 5 0.435637 0.146986 0.261979
14946 2 0.457687 0.218364 0.258319
15015 1 0.405317 0.243599 0.26573
14969 5 0.45043 0.237533 0.288774
14968 5 0.410184 0.245137 0.286033
11728 6 0.496693 0.0767454 0.414218
12753 9 0.470375 0.228598 0.307117
24710 7 0.00537017 0.224983 0.397112
24582 7 0.0730279 0.0397931 0.340492
25183 7 0.0647006 0.0355199 0.314374
25256 7 0.0652951 0.0823955 0.312859
25185 7 0.0408267 0.0631194 0.316012
24544 6 0.0793462 0.0264319 0.337701
24654 7 0.098819 0.0742861 0.336492
24655 7 0.105187 0.0962742 0.332368
24614 6 0.0919166 0.0892206 0.335578
24820 9 0.0176272 0.042139 0.340572
24550 1 0.089368 0.0886142 0.357026
24571 2 0.0372038 0.0594896 0.351735
24576 3 0.0310986 0.0495164 0.340137
24577 5 0.0609499 0.0549292 0.354486
24639 2 0.0354271 0.109766 0.35287
24643 4 0.0349393 0.0844794 0.349947
24644 5 0.0189686 0.115848 0.361875
24645 5 0.0577247 0.118055 0.356377
24649 5 0.0203366 0.0536379 0.360701
24568 1 0.085242 0.0258428 0.358971
22022 5 0.118115 0.0609582 0.358204
25186 7 0.0465427 0.059019 0.327851
25217 6 0.0524835 0.0601722 0.321072
24581 7 0.0747774 0.0270529 0.329939
22097 5 0.119051 0.118679 0.357019
22266 9 0.11583 0.0109567 0.338843
24642 5 0.0279958 0.124313 0.344192
24819 9 0.0419381 0.00751712 0.338998
22634 7 0.17574 0.113403 0.314669
22943 9 0.118498 0.0557343 0.31257
19992 8 0.218206 0.0266102 0.313071
22633 7 0.19913 0.106265 0.310137
22024 3 0.130148 0.113386 0.337827
22267 9 0.139566 0.054862 0.334386
20409 9 0.176505 0.0238679 0.318072
22268 9 0.1416 0.113588 0.332579
22020 3 0.126888 0.0529693 0.339552
22032 7 0.202589 0.0137145 0.337883
22021 4 0.134979 0.0260066 0.353865
20065 6 0.242296 0.0277703 0.323676
22631 7 0.188524 0.0958127 0.328697
22632 7 0.207587 0.094915 0.336502
19714 9 0.225307 0.0705031 0.337614
22666 6 0.191549 0.0907968 0.335941
19468 3 0.234969 0.111639 0.337341
19398 3 0.230555 0.0577072 0.340854
19466 2 0.238051 0.111146 0.350163
19469 4 0.238854 0.0865059 0.35346
19393 2 0.23812 0.0612774 0.352865
19474 5 0.218845 0.0550253 0.360132
22016 1 0.184687 0.0886907 0.355916
22018 2 0.13645 0.050371 0.351331
22023 5 0.15877 0.0580575 0.354904
22025 5 0.159946 0.11868 0.352672
21925 1 0.188959 0.0277648 0.359872
21991 6 0.194882 0.0279915 0.339131
22031 7 0.205902 0.0395872 0.338059
20416 7 0.245652 0.0450474 0.326172
20415 7 0.238259 0.0226161 0.33167
19715 9 0.246072 0.120124 0.334224