ITEM: TIMESTEP
117000
ITEM: NUMBER OF ATOMS
25520
ITEM: BOX BOUNDS pp pp pp
-3.7880959704367612e-01 6.0077353187041922e+01
-1.9343525123298086e+00 5.9104637786330073e+01
-1.2623519128000025e+01 1.1189925153399990e+02
ITEM: ATOMS id type xs ys zs
1927 6 0.0236719 0.179092 0.128213
15012 7 0.412072 0.219402 0.124089
25219 7 0.0456172 0.066364 0.145553
25182 6 0.0359644 0.0769077 0.142659
25293 7 0.110489 0.0838473 0.151421
25292 7 0.112847 0.0564319 0.152502
25252 6 0.102438 0.0693763 0.153778
25280 5 0.029548 0.110871 0.159559
25214 3 0.0355773 0.0360687 0.157673
25287 5 0.024687 0.0413652 0.176461
25283 5 0.062671 0.105946 0.170434
25282 5 0.0229968 0.0991094 0.177622
25281 4 0.0411458 0.0715559 0.165585
25277 2 0.0392679 0.0966436 0.168386
25215 5 0.0672385 0.0414649 0.170133
25209 2 0.0424618 0.0470006 0.168448
25188 1 0.0960633 0.0721911 0.172037
25458 9 0.0309685 0.0467832 0.152479
25206 1 0.0928015 0.00946106 0.172348
25220 7 0.033975 0.0859382 0.149194
25290 7 0.0888087 0.110521 0.148273
25291 7 0.0722603 0.110141 0.158541
2033 7 0.0402674 0.12334 0.133773
25253 6 0.0835476 0.119508 0.153877
22660 5 0.126607 0.0406149 0.174289
22735 5 0.127056 0.100038 0.171502
22906 9 0.147892 0.0835863 0.151431
22905 9 0.141237 0.0376008 0.148396
20353 9 0.234243 0.11069 0.149856
22662 3 0.137826 0.0962983 0.151621
22658 3 0.137564 0.0472189 0.154932
20106 3 0.242844 0.0982108 0.1508
20036 3 0.23665 0.0315538 0.157225
20107 4 0.240725 0.068884 0.164875
20104 2 0.245139 0.0937 0.163296
20031 2 0.243323 0.0440584 0.167118
22656 2 0.142741 0.0341741 0.165313
22657 2 0.143873 0.107293 0.162918
20108 5 0.225295 0.104199 0.169065
20112 5 0.225354 0.0406421 0.176357
22663 5 0.166347 0.100963 0.167992
22654 1 0.191325 0.0705319 0.169814
22661 5 0.16713 0.0397854 0.168094
22669 7 0.215052 0.00822733 0.152915
22659 4 0.140438 0.00817316 0.163552
22563 1 0.194517 0.0069374 0.172578
20352 9 0.237514 0.0397576 0.15069
20118 7 0.318308 0.0729921 0.150518
17800 9 0.340985 0.109543 0.150952
20117 7 0.299701 0.0683755 0.144144
20077 6 0.303375 0.0676801 0.151469
17480 3 0.342453 0.0384276 0.15562
17799 9 0.327917 0.041639 0.15387
17484 3 0.342188 0.0978741 0.156084
17478 2 0.345152 0.0301608 0.167182
17479 2 0.344735 0.109019 0.167619
17485 5 0.366654 0.101048 0.172247
17483 5 0.367592 0.0396234 0.170681
17560 5 0.325102 0.1011 0.174555
20109 5 0.268512 0.100096 0.167214
17482 5 0.327076 0.0397847 0.174175
20037 5 0.267538 0.0380551 0.169303
20011 1 0.296716 0.0699892 0.172368
20028 1 0.29212 0.00732032 0.172733
17481 4 0.343141 0.00475041 0.168657
17490 7 0.369387 0.0799993 0.153363
17489 7 0.371392 0.0549211 0.155978
20042 7 0.314753 0.0130128 0.151319
20003 6 0.301323 0.00522621 0.152309
17450 6 0.401613 0.00461715 0.156296
17451 6 0.38047 0.0679344 0.154258
15247 9 0.436769 0.115949 0.155885
14928 3 0.445129 0.102861 0.156542
14856 3 0.442025 0.0341503 0.159286
15246 9 0.426648 0.0294851 0.157798
14929 4 0.442118 0.0691797 0.169211
14926 2 0.445768 0.0941884 0.168212
14851 2 0.444004 0.0444277 0.170717
14931 5 0.469392 0.0988668 0.171402
14857 5 0.466514 0.0404452 0.175257
17476 1 0.39205 0.0705631 0.173571
14832 1 0.498031 0.0700881 0.17711
14934 5 0.425305 0.0369003 0.178338
14930 5 0.427593 0.103259 0.175581
14862 7 0.476145 0.0225786 0.15584
17384 1 0.395057 0.00632591 0.175807
14826 6 0.48335 0.00890128 0.157079
14848 1 0.490322 0.00904936 0.178434
14940 7 0.472976 0.115048 0.153854
17566 7 0.402542 0.117973 0.147343
1995 6 0.0242888 0.131002 0.136376
2032 7 0.0247814 0.145584 0.131332
25275 1 0.087144 0.135456 0.172064
25278 8 0.0209877 0.133347 0.151565
2066 6 0.0490527 0.205604 0.139754
2102 7 0.0462424 0.220862 0.141741
22957 9 0.0829289 0.205865 0.148139
2101 7 0.0441629 0.199245 0.14645
22732 3 0.0944674 0.198337 0.153074
25353 3 0.0405536 0.236161 0.157482
25285 4 0.0322673 0.155609 0.158997
25359 5 0.0261202 0.168093 0.177261
25356 5 0.0666106 0.226725 0.171671
25354 4 0.0364344 0.19699 0.165231
25351 2 0.0430411 0.221649 0.167714
25286 5 0.0652705 0.164574 0.169173
25279 2 0.0415476 0.171893 0.167328
25259 1 0.0984282 0.197576 0.172557
25355 5 0.02484 0.229506 0.175201
1963 7 0.0355805 0.189893 0.129301
1962 7 0.00991797 0.187137 0.130066
25433 7 0.000966208 0.215903 0.135943
22807 5 0.126427 0.231546 0.175627
25365 7 0.0706337 0.245839 0.153714
22667 7 0.156836 0.139272 0.138802
22726 8 0.125137 0.199084 0.150999
22730 5 0.124024 0.161715 0.172378
22700 6 0.204465 0.133171 0.15004
22740 7 0.195326 0.141279 0.144824
22636 1 0.197598 0.131995 0.169756
22630 6 0.167241 0.151012 0.139738
22729 4 0.143746 0.13341 0.16102
22733 4 0.136417 0.221921 0.157594
20188 7 0.203218 0.222996 0.152567
22668 7 0.158737 0.159977 0.145036
20189 7 0.178355 0.222836 0.156527
22741 7 0.219069 0.140165 0.149244
20148 6 0.190072 0.213934 0.152381
22728 5 0.135859 0.175486 0.156584
20354 9 0.233742 0.175065 0.149623
20110 3 0.237115 0.16171 0.154253
20176 5 0.237673 0.238169 0.156528
20177 4 0.243384 0.196898 0.163264
20105 2 0.244251 0.170941 0.1654
20173 2 0.241771 0.221822 0.165813
22727 2 0.143203 0.236217 0.166568
22725 2 0.143349 0.157561 0.164535
20178 5 0.223597 0.225906 0.174478
20183 5 0.226645 0.165376 0.173685
22723 1 0.191071 0.195497 0.171727
22734 5 0.16816 0.231963 0.169709
22731 5 0.166723 0.165639 0.168446
22738 7 0.131368 0.246642 0.147789
17555 4 0.341134 0.133784 0.16611
20102 1 0.291309 0.13321 0.170589
17802 9 0.332864 0.228619 0.148792
17564 7 0.372039 0.210809 0.151078
17554 3 0.342981 0.170598 0.154256
17801 9 0.337665 0.185755 0.155589
17558 3 0.337637 0.219194 0.154381
17552 2 0.344802 0.159372 0.165806
17553 2 0.34355 0.233027 0.164609
17557 5 0.3675 0.165218 0.170706
17559 5 0.367574 0.229322 0.166585
17556 5 0.324998 0.167967 0.17279
20179 5 0.264319 0.231322 0.169823
20111 5 0.267263 0.164116 0.168908
20084 1 0.294491 0.197221 0.173295
17631 5 0.326419 0.225989 0.172871
17563 7 0.374418 0.187529 0.148631
17565 7 0.414827 0.137162 0.151756
17525 6 0.401951 0.128933 0.153349
15011 7 0.420676 0.21748 0.135383
14974 6 0.417162 0.227782 0.1297
14898 6 0.482954 0.128006 0.153564
14939 7 0.470961 0.13959 0.15304
17459 1 0.397573 0.131465 0.174305
14924 1 0.493601 0.132455 0.173453
17526 6 0.384086 0.199509 0.15138
14899 6 0.430845 0.185828 0.143314
14938 7 0.415262 0.188548 0.144536
14937 7 0.437858 0.197052 0.147366
15248 9 0.435976 0.161568 0.151745
15002 3 0.442942 0.228613 0.152392
15249 9 0.432699 0.24061 0.152015
14932 3 0.439005 0.153283 0.158255
15000 2 0.442842 0.218524 0.164368
15003 4 0.441475 0.193478 0.163774
14927 2 0.445415 0.169542 0.167657
15005 5 0.465841 0.223757 0.168496
14933 5 0.469714 0.166261 0.170761
14907 1 0.496656 0.197703 0.173538
15004 5 0.426162 0.230072 0.171233
17550 1 0.392562 0.194483 0.171592
15008 5 0.429198 0.166063 0.176968
15013 7 0.470273 0.245874 0.147999
22687 7 0.13403 -7.57036e-05 0.232166
22759 7 0.0969909 0.108536 0.242193
25198 5 0.0894428 0.0718918 0.192391
22635 1 0.120444 0.0405697 0.192989
25268 5 0.0479415 0.0736077 0.196416
25258 1 0.0170587 0.103177 0.197252
25207 1 0.0220314 0.0413214 0.197368
25191 2 0.0717592 0.0793528 0.199943
25263 4 0.0728558 0.104129 0.201669
25197 4 0.0698592 0.06498 0.20971
25192 5 0.0685682 0.0203132 0.209897
25308 6 0.0068625 0.102861 0.216866
25196 3 0.0298116 0.0428553 0.216971
22958 9 0.112788 0.0988134 0.217765
25190 8 0.0608493 0.0427775 0.217974
25510 9 0.0198176 0.0450073 0.223667
25311 7 0.0108463 0.119496 0.240057
22684 7 0.076681 0.0884857 0.236069
25517 7 0.0910727 0.0313171 0.231581
25310 7 0.0477861 0.109507 0.229271
25272 7 0.0151977 0.108439 0.223557
25240 6 0.0779143 0.0421005 0.230814
22685 7 0.0778871 0.085966 0.223878
25506 7 0.0696709 0.0423514 0.238792
22649 6 0.080132 0.0971764 0.229632
25195 5 0.0891092 0.0114716 0.192128
25194 5 0.0486292 0.00877157 0.194821
25471 9 0.0628696 0.00678796 0.245162
25189 2 0.0709332 0.00488087 0.200123
22717 6 0.108775 0.114329 0.246812
22648 6 0.126747 0.0129263 0.233901
22931 9 0.169605 0.00434303 0.215039
15030 7 0.421467 0.252048 0.245985
22655 1 0.121894 0.102919 0.191923
22651 7 0.130706 0.0298063 0.218491
22683 6 0.127134 0.0397684 0.212724
25231 3 0.0648584 0.0703028 0.247994
25472 9 0.0526249 0.0590947 0.246978
25484 9 0.0807461 0.125691 0.217337
12399 6 0.49614 0.172486 0.246044
22918 9 0.162932 0.0164947 0.246133
22644 3 0.124018 0.10278 0.211435
20063 7 0.190856 0.00831871 0.227562
20083 1 0.2194 0.103797 0.191069
22572 5 0.188755 0.0103682 0.190789
20029 1 0.222865 0.0432302 0.195256
22643 5 0.188836 0.0737901 0.190347
22642 5 0.149034 0.0695701 0.194399
20016 5 0.246153 0.0117179 0.198039
22637 2 0.171977 0.0682986 0.198769
22641 4 0.172492 0.042066 0.200959
22565 2 0.172657 0.0169965 0.199378
22640 5 0.169246 0.0824221 0.208728
22650 7 0.141847 0.0461769 0.21165
20024 7 0.216341 0.054271 0.22127
20060 6 0.225226 0.0477052 0.215368
22638 8 0.154138 0.103998 0.215148
22686 7 0.137463 0.0224291 0.237596
20025 7 0.238663 0.0575692 0.215965
20100 7 0.22208 0.0924101 0.238076
20131 6 0.210763 0.121579 0.228603
20098 7 0.217242 0.107088 0.22753
20023 6 0.164768 0.043718 0.234601
20130 6 0.227132 0.0787283 0.233953
22688 6 0.164286 0.106929 0.229855
22965 7 0.152693 0.111646 0.235676
20133 7 0.207976 0.122522 0.241541
22954 7 0.1724 0.0935541 0.233795
20135 7 0.217332 0.0612405 0.243075
20061 7 0.165723 0.0543108 0.240439
20062 7 0.179643 0.0382589 0.23369
20022 6 0.199405 0.0139654 0.233612
17509 7 0.24263 0.022588 0.224332
20064 7 0.214768 0.0118634 0.231189
22647 5 0.150305 0.00899068 0.1962
20134 7 0.202277 0.0384981 0.241911
22571 3 0.181566 0.00704516 0.209823
20096 6 0.207768 0.050279 0.247564
20097 6 0.209519 0.122285 0.24959
20095 5 0.248514 0.0745196 0.197693
20101 7 0.244268 0.0779749 0.235351
20090 5 0.248754 0.127013 0.192081
20099 7 0.194887 0.119447 0.226293
17471 6 0.249493 0.0110594 0.228335
17510 7 0.25649 0.0171572 0.234255
20017 5 0.286382 0.00696645 0.192239
20020 5 0.289534 0.0698211 0.193932
17458 1 0.315801 0.0405517 0.19411
17477 1 0.323503 0.104615 0.195537
17464 5 0.346 0.0756058 0.197594
17460 2 0.367907 0.0655575 0.201357
17463 4 0.367638 0.0401341 0.198582
20013 2 0.272229 0.0785185 0.201307
17386 2 0.366288 0.0159977 0.202201
20379 9 0.283539 0.0566637 0.213673
20089 4 0.274992 0.103789 0.201231
17549 7 0.271689 0.119083 0.219057
20019 3 0.272939 0.0676762 0.212873
20378 9 0.26737 0.00767394 0.217577
17472 7 0.30325 0.11408 0.218723
17508 6 0.31829 0.110334 0.216061
17466 6 0.314646 0.0397633 0.214404
17493 7 0.304112 0.0282203 0.216814
17494 7 0.318473 0.0478355 0.221103
17473 7 0.325238 0.101105 0.221515
14960 7 0.347162 0.0725733 0.224378
17548 7 0.276464 0.0947127 0.222801
17578 6 0.278633 0.109605 0.224622
14918 6 0.334229 0.0745682 0.228737
14959 7 0.340532 0.0731773 0.235823
17469 5 0.34374 0.0059897 0.199781
17544 6 0.295487 0.110534 0.244729
17582 7 0.294718 0.107173 0.236842
17456 7 0.293515 0.0614886 0.247665
17457 7 0.315453 0.0542852 0.243934
20014 3 0.276985 0.0132458 0.211576
20012 2 0.269313 0.00222007 0.200615
17503 6 0.303231 0.050357 0.248674
20051 3 0.260298 0.0194402 0.249898
14994 7 0.401727 0.24886 0.210921
17813 9 0.367668 0.0910632 0.247639
20366 9 0.272433 0.0880629 0.245679
17391 3 0.368971 0.0191373 0.214909
17462 3 0.371236 0.0662831 0.213937
17583 7 0.281727 0.118962 0.246646
17826 9 0.374542 0.0513755 0.216442
17499 3 0.358772 0.0779554 0.247374
17465 5 0.387851 0.0735494 0.195048
14838 5 0.485789 0.00961902 0.198126
14906 1 0.418198 0.100072 0.196321
17392 5 0.385209 0.00693263 0.195737
14840 5 0.487007 0.0690887 0.196526
14849 1 0.420223 0.0373064 0.198075
14917 5 0.445345 0.0709466 0.201343
14837 5 0.446366 0.00701532 0.203874
14911 4 0.471196 0.102242 0.202569
14834 2 0.469333 0.0774588 0.20392
14942 7 0.414517 0.0955341 0.223487
14839 3 0.476004 0.0726442 0.216011
14914 6 0.407921 0.0979471 0.216388
14955 6 0.413616 0.0335728 0.21841
15273 9 0.479383 0.0866367 0.219522
14922 7 0.418144 0.0192117 0.215615
14941 7 0.395137 0.0880178 0.216758
14923 7 0.398156 0.0299316 0.220922
15308 7 0.448155 0.0324784 0.226257
12291 6 0.437184 0.0929634 0.23312
14884 6 0.457515 0.0413343 0.231818
12329 7 0.450456 0.10274 0.231003
15297 7 0.460244 0.0560818 0.227534
12366 6 0.475205 0.115579 0.23203
12328 7 0.440449 0.0876658 0.240212
15303 9 0.403528 0.0548409 0.243807
14868 8 0.44375 0.0433822 0.246477
14951 6 0.40306 0.110484 0.246268
14904 7 0.412264 0.109392 0.239968
15272 9 0.464504 0.0109604 0.222431
14835 3 0.477428 0.00918325 0.217524
17827 9 0.384382 0.125893 0.214684
14874 3 0.413997 0.0458221 0.248919
14905 7 0.392494 0.12264 0.245281
17825 9 0.37666 0.00619435 0.217811
25270 6 0.0379899 0.121726 0.23126
25343 6 0.00824419 0.242604 0.244214
25309 7 0.048254 0.127679 0.236726
25345 7 0.0243963 0.200459 0.215933
25348 7 0.00510832 0.160932 0.219768
25346 7 0.0319519 0.219545 0.222511
22751 3 0.114 0.228683 0.245837
25303 3 0.0175965 0.173087 0.246149
25260 2 0.0714917 0.12912 0.200944
25265 5 0.0874728 0.136425 0.192112
25267 5 0.0896468 0.195018 0.192163
22706 1 0.119781 0.163925 0.192456
25378 6 0.0203866 0.215487 0.217146
25264 5 0.046933 0.135405 0.199435
25332 1 0.0190771 0.22608 0.196654
25276 1 0.0222905 0.165509 0.197344
25342 5 0.0491879 0.198877 0.19741
25337 4 0.0752287 0.228346 0.201437
25261 2 0.073141 0.203512 0.200391
25512 9 0.00608187 0.171005 0.240096
25266 3 0.0779894 0.193288 0.211565
25262 3 0.079154 0.138251 0.212412
25485 9 0.0904271 0.182532 0.210915
22796 7 0.102535 0.21355 0.215902
22756 6 0.12021 0.166154 0.214085
22720 7 0.109011 0.155945 0.215889
25377 6 0.0211704 0.163063 0.217194
25507 7 0.0648195 0.179743 0.224832
25518 7 0.059202 0.153403 0.226163
25314 6 0.0630588 0.167988 0.230747
25297 8 0.0484653 0.172559 0.244189
22960 9 0.10689 0.212329 0.244761
22757 7 0.0931276 0.16911 0.239785
22825 6 0.116699 0.222856 0.214497
25347 7 0.0277185 0.150284 0.220399
22758 7 0.117755 0.175669 0.242525
22718 6 0.103295 0.175245 0.245479
25381 7 0.0181987 0.239606 0.238103
22795 7 0.123809 0.226032 0.221269
22724 1 0.124907 0.228727 0.194768
22719 7 0.126559 0.171434 0.220818
22791 6 0.0461509 0.242365 0.227306
25457 9 0.03772 0.000250759 0.159127
22760 7 0.118079 0.122282 0.241766
22645 4 0.164817 0.125021 0.206764
20207 7 0.216891 0.215262 0.239512
20165 6 0.20863 0.217096 0.246534
22713 5 0.187557 0.195992 0.191401
22646 5 0.191557 0.129291 0.190826
20154 1 0.217908 0.229866 0.19309
22716 5 0.149416 0.134116 0.191172
20103 1 0.222128 0.164993 0.192681
22712 5 0.148728 0.197426 0.194134
22639 2 0.170876 0.137743 0.196421
22708 2 0.170629 0.18857 0.199303
22711 4 0.171288 0.16308 0.198741
22710 3 0.171903 0.195507 0.211217
22932 9 0.172239 0.181351 0.215584
20167 7 0.196073 0.213385 0.21495
20204 6 0.207442 0.224713 0.213969
20168 7 0.199525 0.237418 0.215211
20092 3 0.226049 0.164535 0.21229
22721 7 0.143879 0.158234 0.242537
20406 9 0.214796 0.15907 0.21849
22722 7 0.15061 0.18007 0.238708
22762 6 0.151973 0.22901 0.227452
22966 7 0.155448 0.21246 0.22444
22745 8 0.14389 0.23157 0.242339
20166 6 0.177645 0.160063 0.223008
20206 7 0.163264 0.160408 0.226438
22755 6 0.143524 0.16724 0.236237
20205 7 0.175025 0.149825 0.216903
22955 7 0.161721 0.240434 0.223204
20170 7 0.240438 0.215468 0.225781
20123 3 0.255943 0.14226 0.248819
20085 2 0.2706 0.128384 0.198423
20164 5 0.245062 0.201151 0.193915
20086 8 0.256585 0.163884 0.215805
20203 6 0.256076 0.212893 0.226804
17815 9 0.368351 0.189359 0.243668
17618 7 0.269448 0.237551 0.229992
20169 7 0.258714 0.212288 0.218916
20094 5 0.285906 0.195961 0.190858
20091 5 0.289428 0.134636 0.190526
17531 1 0.317899 0.165856 0.193551
17551 1 0.322962 0.226613 0.193232
17538 5 0.349813 0.19385 0.192793
17543 5 0.34827 0.13517 0.198177
20087 2 0.268241 0.201942 0.198797
17533 2 0.37283 0.191453 0.198412
20159 4 0.274793 0.225905 0.201536
17461 2 0.371464 0.141071 0.201059
20088 5 0.266173 0.142327 0.208022
20093 4 0.265271 0.186913 0.20825
17547 7 0.324448 0.15934 0.218724
17536 5 0.369924 0.20701 0.207487
17540 3 0.329739 0.22982 0.211614
17579 6 0.318462 0.169807 0.214104
17534 8 0.360361 0.229631 0.215018
17546 7 0.306179 0.174312 0.218966
17854 9 0.31722 0.230702 0.216928
20368 9 0.258554 0.201758 0.240865
20136 6 0.273046 0.165345 0.229442
20413 7 0.27366 0.178991 0.234459
20402 7 0.268498 0.152051 0.234918
17545 6 0.308855 0.237956 0.244913
17814 9 0.363189 0.148632 0.245564
14997 7 0.354482 0.177254 0.22756
17850 7 0.368993 0.217196 0.234976
17861 7 0.366597 0.245167 0.234821
17537 4 0.373805 0.166144 0.201194
17580 7 0.296281 0.242382 0.239515
17581 7 0.32168 0.234863 0.240843
20127 3 0.262628 0.193585 0.247147
20367 9 0.26388 0.156367 0.248473
17571 3 0.369218 0.202678 0.248263
15026 6 0.367465 0.170584 0.230635
14996 7 0.368657 0.157559 0.225887
17584 6 0.363088 0.230763 0.229829
14909 2 0.475528 0.203367 0.201612
14947 3 0.458965 0.147107 0.248751
14925 1 0.425957 0.166274 0.195678
14913 5 0.487891 0.13449 0.19345
14912 5 0.44686 0.133759 0.197881
12407 7 0.472117 0.127551 0.226756
12408 7 0.472261 0.122563 0.239124
14833 2 0.469969 0.000794068 0.206463
14979 1 0.4219 0.226752 0.193257
14956 6 0.411629 0.174154 0.213506
17468 5 0.389101 0.13057 0.193944
12353 7 0.486564 0.160718 0.244477
17467 3 0.373749 0.136929 0.213462
14915 3 0.479868 0.194988 0.213225
14952 3 0.463023 0.204286 0.24915
15275 9 0.470034 0.182076 0.21515
14985 4 0.476422 0.229009 0.201434
17539 5 0.389977 0.197889 0.190461
14921 7 0.416894 0.174621 0.220603
14910 3 0.475215 0.137934 0.212429
14920 7 0.397417 0.168023 0.214614
14919 6 0.420325 0.17657 0.246957
15262 9 0.467005 0.217343 0.244898
14916 5 0.491528 0.194022 0.193587
14991 5 0.451598 0.197122 0.198797
14908 2 0.470453 0.127436 0.201375
15031 7 0.411213 0.233462 0.240442
15274 9 0.488735 0.146994 0.21211
17636 7 0.402369 0.246828 0.141822
14992 6 0.408906 0.243188 0.246439
12352 7 0.485251 0.183911 0.24558
15261 9 0.446421 0.156361 0.247378
14957 7 0.414474 0.183703 0.240797
15027 6 0.417673 0.243973 0.212569
14861 7 0.481277 0.000773229 0.150268
25486 9 0.0917931 0.246939 0.215858
25459 9 0.0380326 0.251322 0.159739
25227 3 0.0549538 0.0175757 0.249343
22675 3 0.160637 0.0838359 0.250111
20056 3 0.264582 0.0762929 0.249585
22920 9 0.172625 0.128442 0.24937
14958 7 0.430353 0.187793 0.249263
20132 7 0.223404 0.130185 0.250872
25178 3 0.0174647 0.0453284 0.306787
25245 3 0.0185228 0.118021 0.303838
25251 5 0.00870316 0.0461097 0.288046
25248 5 0.0521301 0.106122 0.291618
25247 5 0.0109654 0.111369 0.284872
25246 4 0.0221163 0.0804264 0.296033
25243 2 0.0272665 0.104852 0.293891
25224 1 0.078224 0.0782282 0.289679
25179 5 0.0499853 0.0486908 0.292797
25173 2 0.0259009 0.0549199 0.295937
22624 5 0.107203 0.049914 0.28971
22699 5 0.11124 0.106833 0.286615
25170 1 0.0764059 0.016199 0.290338
25232 5 0.072785 0.0768278 0.268045
25230 5 0.0712391 0.0200789 0.268816
22671 1 0.101049 0.0473536 0.267823
22619 1 0.107058 0.108805 0.267279
25171 1 0.00661391 0.0485892 0.265851
25229 5 0.0314559 0.0174265 0.265537
25294 1 0.00290647 0.10934 0.264041
25306 5 0.0335645 0.0766514 0.262162
25226 2 0.0578456 0.0825826 0.25854
25225 2 0.0535595 0.0105888 0.261628
25300 4 0.0582784 0.108027 0.257062
25496 9 0.0302813 0.0406052 0.310936
25288 6 0.0873498 0.0788003 0.310102
25218 6 0.0730038 0.0196312 0.310867
22622 3 0.122975 0.0499027 0.308197
25257 7 0.0960895 0.0926451 0.310847
25256 7 0.0983868 0.0677191 0.312114
24581 7 0.0700365 0.00210468 0.333473
22626 3 0.119224 0.114826 0.306711
22944 9 0.114075 0.129776 0.307757
22623 4 0.125326 0.0166257 0.297134
22681 5 0.13173 0.0226743 0.266331
22620 2 0.128229 0.0411968 0.296914
22621 2 0.129409 0.114604 0.294571
19999 4 0.220665 0.0352203 0.301637
19993 2 0.229463 0.0511952 0.293513
20068 2 0.22927 0.100657 0.296906
20071 4 0.229769 0.07462 0.297614
22625 5 0.150961 0.0488976 0.292834
22627 5 0.152569 0.105476 0.293304
22618 1 0.175624 0.0778257 0.289422
20072 5 0.209988 0.106116 0.28999
20070 3 0.226979 0.110699 0.308308
20076 5 0.213138 0.0479267 0.284314
22600 1 0.180331 0.0174863 0.290384
22609 5 0.17308 0.0203165 0.271433
22678 5 0.174169 0.079714 0.268894
20119 1 0.204755 0.108281 0.268468
19990 1 0.211059 0.0462255 0.267269
22677 5 0.131152 0.0783461 0.263743
20129 5 0.234826 0.0783206 0.264618
20053 5 0.232987 0.0132057 0.264402
22602 2 0.155911 0.0240687 0.262365
22673 2 0.154946 0.0732476 0.261179
22676 4 0.161296 0.0479387 0.259018
22608 3 0.158758 0.00853712 0.252347
19998 3 0.18441 0.0188846 0.310528
19992 8 0.215047 0.0162736 0.311473
20391 9 0.229489 0.0996599 0.313785
14232 5 0.479409 -0.000106104 0.428076
16818 7 0.354024 0.0180544 0.427899
17500 4 0.358165 0.0444303 0.260074
20000 5 0.252602 0.0446084 0.290922
20124 4 0.260422 0.109431 0.259906
20073 5 0.250819 0.106749 0.291988
17448 5 0.352564 0.110621 0.288965
17440 8 0.315098 0.080945 0.310191
17446 3 0.284482 0.0812688 0.309647
17442 5 0.321008 0.0586128 0.301563
17447 4 0.320474 0.10118 0.30032
17443 4 0.328557 0.0159982 0.296701
17439 2 0.327972 0.0406387 0.293972
17441 2 0.327661 0.116458 0.291605
20048 1 0.282382 0.0777499 0.290209
19989 1 0.275955 0.0126589 0.288035
17445 5 0.350808 0.0489047 0.29099
17524 5 0.31185 0.109977 0.282502
17444 5 0.31104 0.0405352 0.285175
20057 5 0.273926 0.0764201 0.27006
17495 1 0.303284 0.0455039 0.269091
17506 5 0.332811 0.0152031 0.267889
20054 5 0.270926 0.0140457 0.269184
17438 1 0.309644 0.108509 0.264901
17501 5 0.333849 0.0791566 0.263954
17421 2 0.355176 0.0200061 0.263234
20050 2 0.258601 0.0842371 0.261003
20049 2 0.255126 0.00666756 0.260302
17497 2 0.355172 0.0697108 0.259448
17427 4 0.353075 0.00656945 0.253043
13588 7 0.466776 -0.00528266 0.493839
20040 6 0.272721 0.00250969 0.307513
17502 5 0.373292 0.078507 0.266347
17857 9 0.276259 0.0941885 0.313883
19423 7 0.235453 0.00728128 0.417164
17428 5 0.373357 0.0137459 0.271204
17437 1 0.374683 0.0786511 0.28858
14860 6 0.483047 0.0784127 0.309249
15286 9 0.40923 0.0387672 0.308186
14890 5 0.419197 0.120225 0.300741
14822 3 0.416546 0.053752 0.307695
14891 4 0.428762 0.0831405 0.29641
14817 2 0.427007 0.0571686 0.296795
14887 2 0.426825 0.105922 0.291715
14823 5 0.449326 0.048958 0.293054
17418 1 0.382134 0.0140942 0.28981
14893 5 0.449341 0.112525 0.288272
14897 5 0.410731 0.0509577 0.287563
14892 5 0.408086 0.105952 0.283598
14866 1 0.480353 0.0778642 0.289345
14814 1 0.473676 0.0160549 0.291395
14873 5 0.469977 0.0141451 0.271923
14876 5 0.476009 0.080579 0.269875
14815 1 0.408225 0.0473006 0.268436
14943 1 0.402057 0.107757 0.266732
14954 5 0.43318 0.0812449 0.264743
17412 6 0.387656 0.0151791 0.310687
14869 2 0.457539 0.0843565 0.261318
14948 4 0.458197 0.108332 0.257188
14872 5 0.430118 0.00751602 0.269264
14867 2 0.452611 0.00560429 0.264219
14870 5 0.450966 0.0215712 0.254952
14875 4 0.456277 0.0662868 0.252346
14903 7 0.439028 0.0974745 0.312469
14383 5 0.467531 0.23246 0.44195
17380 7 0.397762 0.00227866 0.310979
25497 9 0.0170133 0.133622 0.301883
25299 5 0.0548183 0.149863 0.252789
25296 2 0.0569107 0.132405 0.261541
25241 1 0.0781277 0.142981 0.28998
25249 3 0.0194681 0.168041 0.302708
25319 3 0.0235729 0.239659 0.303424
25360 6 0.0872553 0.201459 0.308941
25322 5 0.0531899 0.234058 0.289035
25321 5 0.0100059 0.236396 0.285287
25320 4 0.0266227 0.204529 0.292966
25317 2 0.0298089 0.229396 0.292338
25295 1 0.0845776 0.203542 0.288902
25250 5 0.0529227 0.171663 0.291446
25244 2 0.0285637 0.178981 0.292204
22695 5 0.111676 0.174375 0.287657
22773 5 0.112144 0.233298 0.287728
25325 5 0.0111926 0.17139 0.28375
25302 5 0.0730751 0.13817 0.270997
25305 5 0.072607 0.204913 0.269278
22742 1 0.101596 0.172907 0.266904
22690 1 0.107744 0.235468 0.265569
25301 5 0.0327621 0.13322 0.265746
25242 1 0.00661791 0.174296 0.264388
25376 5 0.0296889 0.210087 0.264332
25298 2 0.053838 0.212766 0.261244
25371 4 0.0594125 0.236076 0.257396
25304 4 0.0543455 0.194917 0.252965
22693 3 0.124322 0.165965 0.306388
25289 6 0.0826755 0.145758 0.309633
25498 9 0.0105967 0.179953 0.306532
25254 7 0.0957495 0.154932 0.30978
22697 3 0.126278 0.240096 0.30664
25366 1 0.00438005 0.234386 0.264319
25331 7 0.0759163 0.206222 0.313778
22945 9 0.127449 0.179401 0.309621
22748 4 0.161002 0.17115 0.258586
22674 2 0.155617 0.146305 0.261115
22754 5 0.131293 0.143259 0.265304
20202 5 0.235156 0.198637 0.261377
22694 4 0.131532 0.139032 0.291634
22691 2 0.130735 0.163908 0.294203
22672 1 0.181562 0.139458 0.288552
20142 4 0.230471 0.201767 0.291342
20147 5 0.212487 0.166057 0.287552
22696 5 0.153674 0.173752 0.292843
20074 3 0.22248 0.173168 0.305872
20141 3 0.22533 0.233815 0.305145
22692 2 0.131401 0.242178 0.294076
20069 2 0.230769 0.17726 0.294021
22698 5 0.153519 0.233931 0.290858
22689 1 0.177679 0.203527 0.289647
20392 9 0.207217 0.166223 0.305368
20139 2 0.230014 0.227281 0.293203
20143 5 0.210646 0.237588 0.28668
20067 1 0.209953 0.171048 0.26633
22680 5 0.174707 0.141125 0.269101
22750 5 0.175865 0.203451 0.268235
20190 1 0.204341 0.233257 0.265509
22749 5 0.133798 0.199898 0.266667
20125 5 0.234784 0.141944 0.265526
22744 2 0.156142 0.196066 0.261491
22747 5 0.153295 0.209829 0.251245
22703 7 0.203399 0.212471 0.311462
22737 6 0.186901 0.213106 0.309479
22704 7 0.202606 0.130992 0.309223
22736 6 0.189273 0.140713 0.309267
22702 7 0.18415 0.229595 0.309696
22679 3 0.156886 0.132974 0.250299
20393 9 0.216247 0.246284 0.305153
22952 7 0.137227 0.215819 0.314349
12313 1 0.500298 0.0440771 0.269862
1824 7 -0.00105231 -0.00272691 0.33848
17203 9 0.354575 0.250853 0.488707
17572 4 0.3618 0.173697 0.260225
20126 5 0.277038 0.143006 0.266488
20075 5 0.252307 0.167175 0.291241
20144 5 0.253389 0.235866 0.290659
20066 1 0.277117 0.137049 0.288292
17517 2 0.328448 0.240778 0.293159
17516 2 0.328152 0.1654 0.295195
17518 3 0.323743 0.172207 0.307158
17522 3 0.323215 0.236347 0.305284
20079 7 0.299178 0.217636 0.308596
20114 6 0.290038 0.204913 0.307471
17519 4 0.324083 0.140849 0.295103
17521 5 0.351687 0.171238 0.29198
20120 1 0.28074 0.200757 0.28696
17523 5 0.351826 0.233129 0.289958
17520 5 0.312107 0.174622 0.287174
17595 5 0.312063 0.230602 0.285191
17529 7 0.356255 0.219658 0.310212
17567 1 0.305784 0.171214 0.266692
20128 5 0.274272 0.198848 0.266499
17515 1 0.311064 0.23495 0.265622
17577 5 0.335332 0.141883 0.264196
17573 5 0.336321 0.205152 0.261876
17498 2 0.359296 0.148662 0.262227
20121 2 0.256842 0.134315 0.261023
17569 2 0.360752 0.198341 0.259647
20122 2 0.258293 0.205739 0.258047
20196 4 0.259315 0.230698 0.256361
20113 6 0.276917 0.134035 0.30841
20080 7 0.300157 0.192643 0.307282
17504 3 0.366942 0.137784 0.251091
17561 6 0.365124 0.206611 0.309612
17839 9 0.325731 0.159686 0.312198
17530 7 0.353707 0.195907 0.31136
17840 9 0.324621 0.249395 0.309677
17574 5 0.377532 0.20726 0.267188
20081 7 0.29207 0.135763 0.31035
14945 2 0.455247 0.134638 0.259604
17505 5 0.375222 0.144602 0.271783
14886 1 0.411216 0.172409 0.267015
17514 1 0.377732 0.202119 0.289181
14894 3 0.384308 0.144007 0.309452
14972 5 0.412078 0.176868 0.284446
14896 5 0.452489 0.170411 0.291598
14968 5 0.409974 0.235246 0.287244
14888 8 0.414874 0.139938 0.310902
14966 3 0.423027 0.241142 0.306384
12342 3 0.487431 0.199754 0.308339
14895 4 0.419818 0.163204 0.302011
14964 2 0.428103 0.229248 0.294967
14967 4 0.426934 0.204038 0.296858
14889 2 0.42841 0.178702 0.294042
17496 1 0.38355 0.14253 0.28985
14969 5 0.452177 0.2316 0.29117
14944 1 0.484049 0.204751 0.289439
14885 1 0.476047 0.139717 0.288365
14953 5 0.475447 0.202095 0.268845
14936 6 0.48064 0.138523 0.308992
14950 5 0.471176 0.139237 0.268821
15015 1 0.404359 0.23606 0.266709
15025 5 0.434923 0.202549 0.263355
14949 5 0.431983 0.140186 0.263444
14946 2 0.458163 0.210283 0.261144
15020 4 0.453807 0.234804 0.262504
14900 7 0.493693 0.135577 0.313142
14828 7 0.494813 0.0884699 0.311853
24544 6 0.0776115 0.0151173 0.336862
14308 2 0.490332 0.177314 0.439073
25183 7 0.0658915 0.00782337 0.314884
25515 7 0.040834 0.125679 0.317135
24654 7 0.0902194 0.0746694 0.329127
24655 7 0.112897 0.0795372 0.334778
24614 6 0.09706 0.0745824 0.335992
24820 9 0.0199826 0.0433571 0.34104
24550 1 0.0896253 0.0771181 0.356363
24571 2 0.0386271 0.0493081 0.354883
24576 3 0.0295143 0.034608 0.345774
24577 5 0.061822 0.0409598 0.356526
24639 2 0.0342425 0.0993064 0.352243
24642 5 0.0283621 0.11316 0.342618
24643 4 0.0360703 0.0736803 0.351439
24644 5 0.0160169 0.105429 0.360628
24645 5 0.0569479 0.107917 0.35575
24649 5 0.0206751 0.046576 0.363598
24568 1 0.0852259 0.0114518 0.357123
22022 5 0.11985 0.0442648 0.357837
22097 5 0.120618 0.105972 0.355659
24582 7 0.0926675 0.0147552 0.333447
25184 7 0.0871325 0.0197194 0.314438
22665 6 0.115489 0.013971 0.323432
22943 9 0.119619 0.0376701 0.313133
22267 9 0.125454 0.0521684 0.336874
24653 7 0.0955356 0.124039 0.331603
22633 7 0.120293 -0.000473983 0.321419
1327 7 0.00719739 0.0784449 0.340547
24819 9 0.0299205 0.0031382 0.344957
16938 5 0.405677 0.232034 0.448146
22634 7 0.126583 0.0176391 0.329218
20415 7 0.236845 0.0030112 0.328711
20409 9 0.175865 0.0281598 0.315911
22268 9 0.139387 0.112268 0.330582
22024 3 0.134502 0.10203 0.335878
22020 3 0.13619 0.0410773 0.338553
22021 4 0.135241 0.00943813 0.35158
20065 6 0.238446 0.0139778 0.322657
20416 7 0.241818 0.0283383 0.327128
22631 7 0.170823 0.0595202 0.336007
22632 7 0.183693 0.0732408 0.328683
19714 9 0.217555 0.0554649 0.336315
22666 6 0.183883 0.0683436 0.335819
19468 3 0.229364 0.100505 0.337263
19398 3 0.230978 0.0488755 0.337904
19466 2 0.236807 0.100912 0.349636
19469 4 0.239384 0.0764883 0.35247
19393 2 0.237642 0.051272 0.349966
19470 5 0.217579 0.108348 0.356737
19474 5 0.218619 0.0423803 0.356513
22016 1 0.185743 0.0766796 0.355356
22018 2 0.137076 0.0348507 0.350365
22019 2 0.137879 0.112032 0.347257
22023 5 0.159271 0.0401423 0.354881
22025 5 0.161259 0.105038 0.351428
21925 1 0.187781 0.0147329 0.356055
19715 9 0.231806 0.0845236 0.334855
21991 6 0.190039 0.0105981 0.335875
22031 7 0.182444 0.00804251 0.32932
22030 7 0.205061 0.122022 0.332762
22005 5 0.183843 0.0768485 0.376473
21934 5 0.182684 0.0145499 0.37641