ITEM: TIMESTEP
28000
ITEM: NUMBER OF ATOMS
25520
ITEM: BOX BOUNDS pp pp pp
6.5472179500000005e-01 5.9043821794999999e+01
-8.9085736299999996e-01 5.8061142637000003e+01
-1.0494733796999999e+01 1.0977046620300000e+02
ITEM: ATOMS id type xs ys zs
25292 7 0.0834994 0.037524 0.104752
25293 7 0.0592965 0.0473716 0.106392
25252 6 0.0749077 0.0489897 0.109356
22906 9 0.105616 0.0654678 0.109681
22658 3 0.116133 0.023763 0.10688
25253 6 0.0715377 0.103162 0.111681
25220 7 0.0287449 0.0404893 0.108718
25182 6 0.0309694 0.0500797 0.102403
25219 7 0.0308363 0.0643082 0.105523
25290 7 0.0589419 0.0921555 0.112093
25278 8 0.0117654 0.111003 0.117055
25291 7 0.0844425 0.0943256 0.109899
25280 5 0.0286945 0.0859375 0.119054
25214 3 0.00875213 0.0105137 0.121756
22662 3 0.119798 0.0745644 0.108378
22667 7 0.133853 0.101849 0.0926227
22630 6 0.138935 0.117553 0.0936461
22668 7 0.1324 0.119491 0.101218
22905 9 0.118916 0.0394811 0.106608
22729 4 0.12397 0.111399 0.119334
20106 3 0.231229 0.0901827 0.100923
20036 3 0.237464 0.0103595 0.102685
20354 9 0.232245 0.122906 0.0998293
20107 4 0.238315 0.0520235 0.109117
20104 2 0.234223 0.0775901 0.112527
20031 2 0.236878 0.0266008 0.113437
20108 5 0.213301 0.0806501 0.119433
22700 6 0.17978 0.114093 0.101816
22656 2 0.129978 0.0128693 0.116586
20112 5 0.214697 0.019879 0.120402
22657 2 0.127925 0.0851543 0.119205
22654 1 0.180684 0.0506604 0.121905
22636 1 0.184207 0.111055 0.12187
22661 5 0.154807 0.0197887 0.11824
22663 5 0.15181 0.0781372 0.122185
22740 7 0.166854 0.116189 0.0963487
20353 9 0.234581 0.0808688 0.0947395
20352 9 0.248596 0.017182 0.097348
22741 7 0.193623 0.121635 0.0992681
20117 7 0.286455 0.0434309 0.0951035
17451 6 0.345088 0.104674 0.0847501
17489 7 0.336263 0.0946022 0.0896252
20077 6 0.285065 0.0563361 0.0993996
17480 3 0.333111 0.0199892 0.102681
17799 9 0.332689 0.0368671 0.102361
17800 9 0.313533 0.0697106 0.101593
17484 3 0.330201 0.0728102 0.102215
20118 7 0.26879 0.0573445 0.100907
17555 4 0.333988 0.11242 0.109033
17479 2 0.336145 0.0871517 0.112276
20042 7 0.298613 0.012438 0.09098
20003 6 0.284081 0.0137329 0.0876284
17478 2 0.336048 0.0109131 0.114828
20109 5 0.257561 0.0830252 0.118327
17485 5 0.3592 0.0795566 0.116779
20037 5 0.258198 0.0195156 0.120786
17483 5 0.360434 0.0150444 0.118526
20102 1 0.279367 0.112624 0.119101
17560 5 0.318501 0.0808752 0.121091
17566 7 0.3709 0.105614 0.0918455
17482 5 0.318634 0.0218604 0.122081
20011 1 0.289868 0.05128 0.12213
17565 7 0.396931 0.100081 0.0944348
17525 6 0.384371 0.110405 0.0964793
14898 6 0.487376 0.0619215 0.0966873
14940 7 0.474763 0.0688448 0.100921
14856 3 0.435901 0.0109079 0.101054
14928 3 0.423832 0.0916136 0.101738
15247 9 0.43217 0.106131 0.101427
14929 4 0.433579 0.0513517 0.110092
14851 2 0.436508 0.0248156 0.112324
14926 2 0.4346 0.0766214 0.111269
14939 7 0.47864 0.0567629 0.090607
14931 5 0.458949 0.0839803 0.114119
14857 5 0.461105 0.0217253 0.115821
14924 1 0.486516 0.112506 0.116715
17459 1 0.386897 0.115853 0.117511
15246 9 0.421472 0.00282249 0.100464
14832 1 0.491317 0.0503377 0.117978
14934 5 0.418717 0.0166081 0.120472
17476 1 0.386012 0.0494812 0.120922
14930 5 0.420487 0.0814914 0.122193
12352 7 0.496309 0.132796 0.197868
14861 7 0.495503 0.00361621 0.0939713
22726 8 0.10101 0.174031 0.108139
22732 3 0.0710276 0.172939 0.112117
22957 9 0.0551016 0.172199 0.108935
22728 5 0.116571 0.153719 0.115304
2032 7 0.00701086 0.185377 0.096446
1995 6 0.0194351 0.18271 0.101847
2033 7 0.0137156 0.188697 0.108741
22733 4 0.115409 0.201474 0.10853
25327 6 0.000250245 0.225147 0.0690462
25363 7 0.00596849 0.211579 0.0723
22701 6 0.0963449 0.237647 0.097197
22739 7 0.100404 0.223899 0.101348
25353 3 0.0145299 0.209159 0.122024
25459 9 0.0106465 0.224245 0.122518
25382 7 0.0111801 0.19622 0.209296
22802 4 0.12773 0.237912 0.120001
22738 7 0.101197 0.251006 0.101685
20115 7 0.227105 0.184084 0.0808685
20078 6 0.212241 0.177054 0.0820621
20148 6 0.167176 0.180495 0.099933
20188 7 0.177389 0.178213 0.0938685
20189 7 0.163664 0.196979 0.098458
20174 8 0.2063 0.238718 0.0956048
20110 3 0.222703 0.135647 0.100152
20116 7 0.215098 0.174079 0.0898555
20176 5 0.220871 0.217652 0.10286
20177 4 0.226586 0.176077 0.10891
20105 2 0.228289 0.150679 0.110614
20173 2 0.231041 0.202056 0.111441
20180 3 0.176065 0.234791 0.0998807
22727 2 0.125006 0.211168 0.119349
22725 2 0.127303 0.136186 0.12334
22707 1 0.181305 0.237079 0.11957
22734 5 0.150124 0.203052 0.121239
20178 5 0.215515 0.206132 0.12154
22731 5 0.151908 0.143518 0.122986
22723 1 0.177851 0.176951 0.119932
20183 5 0.215757 0.14433 0.121931
20405 9 0.161326 0.242645 0.0968823
17490 7 0.3407 0.119248 0.0883707
17802 9 0.344175 0.198898 0.093623
17554 3 0.329535 0.14999 0.0974533
17801 9 0.327952 0.165992 0.0976388
17558 3 0.329776 0.197206 0.0982224
17526 6 0.364465 0.197307 0.0845654
17552 2 0.331588 0.138877 0.109324
17625 4 0.329958 0.238657 0.106765
17553 2 0.332566 0.212085 0.108767
20111 5 0.253219 0.143999 0.113222
20179 5 0.255521 0.208599 0.114297
17557 5 0.354003 0.148536 0.114721
17559 5 0.356803 0.209001 0.112692
17631 5 0.31582 0.205632 0.117838
20171 1 0.28125 0.238827 0.118545
20084 1 0.284059 0.173509 0.117852
17563 7 0.366478 0.180701 0.0848853
17556 5 0.311734 0.146252 0.11626
20144 5 0.255854 0.21436 0.245703
17564 7 0.349925 0.198432 0.080648
15248 9 0.437956 0.14432 0.0892758
17637 7 0.380961 0.225653 0.0891144
14899 6 0.438542 0.172072 0.0804748
14937 7 0.43869 0.177885 0.08798
14938 7 0.432498 0.184935 0.0763879
17636 7 0.404693 0.22427 0.0942876
17596 6 0.390109 0.232815 0.0949275
15002 3 0.433486 0.213797 0.0965732
14932 3 0.433839 0.135364 0.0958651
15249 9 0.439693 0.229275 0.0970708
15000 2 0.436219 0.200129 0.107738
15003 4 0.434121 0.174531 0.105508
14927 2 0.43686 0.148639 0.106776
14933 5 0.459508 0.145037 0.112513
15005 5 0.460182 0.205296 0.112252
14998 1 0.486687 0.238323 0.115649
15004 5 0.416382 0.208054 0.114928
17532 1 0.387562 0.237943 0.116131
17550 1 0.384737 0.175553 0.115752
14907 1 0.490529 0.174814 0.117618
15008 5 0.421088 0.140538 0.116013
25287 5 0.0179951 0.0159353 0.142072
25283 5 0.0547442 0.0803787 0.13413
25282 5 0.0127774 0.0805116 0.137941
25281 4 0.0290271 0.0468029 0.128788
25277 2 0.0313035 0.0729685 0.129775
25275 1 0.078813 0.109172 0.132768
25268 5 0.0505156 0.0503575 0.159374
25265 5 0.0890892 0.113886 0.157233
25264 5 0.0479113 0.112004 0.164231
25258 1 0.018408 0.076056 0.160282
22660 5 0.116487 0.0176083 0.12738
25215 5 0.0519453 0.0137115 0.127905
25209 2 0.027263 0.0209682 0.130231
25207 1 0.0227496 0.0159048 0.160697
25198 5 0.0887979 0.0438405 0.153518
25191 2 0.0750489 0.0535858 0.16299
22735 5 0.111838 0.0762705 0.129168
25188 1 0.0833499 0.0441704 0.131047
25263 4 0.0778928 0.0790517 0.166628
25260 2 0.0734944 0.104942 0.166179
22635 1 0.114566 0.0149702 0.14982
22655 1 0.122114 0.0800153 0.150986
25262 3 0.0827659 0.115897 0.177227
25197 4 0.0744971 0.0358481 0.172756
25190 8 0.0649046 0.0129403 0.180407
25196 3 0.0330117 0.0134637 0.180263
25484 9 0.0970338 0.123477 0.175608
25308 6 0.0188529 0.0634132 0.181772
25272 7 0.0241142 0.0472341 0.183042
25271 7 0.00267028 0.0622304 0.183599
25310 7 0.0922577 0.0535328 0.188326
25309 7 0.092597 0.0787976 0.184712
22958 9 0.121492 0.0788995 0.177405
22683 6 0.132986 0.0130581 0.169741
22650 7 0.135239 0.0126536 0.178007
25510 9 0.0249194 0.00221374 0.185418
20075 5 0.259118 0.144799 0.247839
17517 2 0.337212 0.217889 0.249083
20029 1 0.219645 0.0212161 0.143564
20083 1 0.211274 0.080971 0.143818
22637 2 0.170269 0.0435609 0.152705
22639 2 0.169635 0.117268 0.152945
22642 5 0.146274 0.0494206 0.149408
22643 5 0.187735 0.0534342 0.143537
22646 5 0.186615 0.108491 0.14452
22716 5 0.147687 0.108271 0.148404
22641 4 0.170964 0.0168434 0.153025
22645 4 0.170101 0.104145 0.16445
22640 5 0.171806 0.0581069 0.162954
20060 6 0.22556 0.0135953 0.164598
22644 3 0.133163 0.0816979 0.170491
14967 4 0.43847 0.183759 0.24885
22638 8 0.164988 0.0799087 0.172404
20025 7 0.22107 0.016893 0.1729
20090 5 0.239097 0.104311 0.145209
20098 7 0.249019 0.0756043 0.174695
22688 6 0.176189 0.0756811 0.187451
20131 6 0.240145 0.0834119 0.179937
20099 7 0.227234 0.0743895 0.181464
20130 6 0.20746 0.0348554 0.183134
20095 5 0.244463 0.0495337 0.145885
20100 7 0.19398 0.0423085 0.184357
22965 7 0.181871 0.0891096 0.192143
20379 9 0.249142 0.0341223 0.163151
17458 1 0.314667 0.0206054 0.145947
17464 5 0.345341 0.0490198 0.147144
17477 1 0.317799 0.0823284 0.143614
17543 5 0.343742 0.110276 0.144169
20013 2 0.26741 0.0546312 0.151781
20020 5 0.288411 0.0455434 0.144579
20085 2 0.26315 0.106966 0.149491
20091 5 0.279273 0.114392 0.140294
20089 4 0.268872 0.0811237 0.153209
17508 6 0.315159 0.0950619 0.164757
20019 3 0.264214 0.0429065 0.163703
17466 6 0.312275 0.0210312 0.167853
17473 7 0.316526 0.109798 0.168492
17493 7 0.297535 0.0146322 0.165166
17472 7 0.307642 0.086461 0.170494
17460 2 0.368913 0.0450136 0.152178
17461 2 0.368212 0.117368 0.14691
17494 7 0.308918 0.03116 0.174622
17510 7 0.281232 0.0459633 0.179511
17548 7 0.272415 0.0998199 0.180282
17463 4 0.374905 0.0193567 0.1531
17462 3 0.372766 0.0581412 0.163452
17509 7 0.296625 0.063095 0.184823
17578 6 0.286812 0.0991642 0.184684
17826 9 0.373111 0.074595 0.161867
17471 6 0.292111 0.0479893 0.185561
14952 3 0.485052 0.176565 0.203802
17467 3 0.376374 0.102188 0.157282
15297 7 0.440937 0.00689913 0.176178
17827 9 0.391104 0.108186 0.159963
14840 5 0.490216 0.0473337 0.140135
14834 2 0.470117 0.0537466 0.148282
14849 1 0.421801 0.0195061 0.143061
14906 1 0.41399 0.0815926 0.141515
14908 2 0.469529 0.10591 0.146731
14912 5 0.445693 0.11172 0.143524
14917 5 0.447349 0.0468045 0.143888
17465 5 0.385232 0.0525565 0.143018
17468 5 0.38452 0.11682 0.136974
14911 4 0.470067 0.0797557 0.148038
14923 7 0.398913 0.0121596 0.164501
14839 3 0.473651 0.0465067 0.160609
14910 3 0.47363 0.11658 0.158542
14914 6 0.421996 0.0945949 0.162993
14955 6 0.41536 0.0171601 0.164576
14942 7 0.435875 0.100602 0.158511
14913 5 0.486093 0.111564 0.137853
15273 9 0.464661 0.056742 0.165818
14941 7 0.430236 0.0908049 0.169875
14922 7 0.414784 0.0269105 0.171227
15308 7 0.461705 0.0264345 0.17551
12407 7 0.482805 0.103409 0.173457
14960 7 0.396129 0.0529161 0.17582
12291 6 0.452197 0.0667728 0.177279
12366 6 0.487302 0.0940362 0.179802
14884 6 0.45673 0.0125881 0.180862
14918 6 0.403324 0.0458007 0.182194
12329 7 0.465439 0.0776379 0.179402
12408 7 0.481405 0.103362 0.185625
12328 7 0.451065 0.0573042 0.184145
25285 4 0.0206893 0.132171 0.126097
25377 6 0.0172392 0.130119 0.186626
25359 5 0.0182006 0.140964 0.14712
25356 5 0.0504019 0.20854 0.133457
25355 5 0.0101963 0.207035 0.143447
25354 4 0.0281536 0.174299 0.132963
25351 2 0.0261233 0.20025 0.133534
25349 1 0.0775952 0.237293 0.131919
25342 5 0.0482767 0.169804 0.163572
25338 5 0.047053 0.23564 0.16317
25334 2 0.0729021 0.229057 0.16362
25332 1 0.0171525 0.201472 0.165164
25286 5 0.0539412 0.138014 0.1353
25279 2 0.0302018 0.147703 0.136108
25276 1 0.021275 0.137947 0.165872
25267 5 0.0847516 0.174303 0.151849
25261 2 0.0734194 0.176754 0.163243
25259 1 0.0825797 0.175654 0.132495
22730 5 0.113895 0.14005 0.134215
22807 5 0.107221 0.204848 0.12759
25337 4 0.07544 0.202535 0.166122
25339 5 0.0850831 0.233892 0.152411
22706 1 0.115998 0.140381 0.153619
22724 1 0.119555 0.206626 0.14988
25485 9 0.0782489 0.148876 0.173971
25266 3 0.0865996 0.16113 0.171177
25336 3 0.0854976 0.244456 0.17268
25486 9 0.102253 0.241662 0.172942
25378 6 0.0300079 0.192239 0.185539
22719 7 0.140177 0.124292 0.175732
22825 6 0.133034 0.243862 0.170435
22796 7 0.138679 0.238109 0.177491
20103 1 0.215904 0.144907 0.142054
20154 1 0.21113 0.20665 0.140471
22708 2 0.167203 0.169936 0.1519
22709 2 0.173728 0.243744 0.151457
22712 5 0.142407 0.17799 0.151664
22713 5 0.178462 0.177971 0.141326
22715 5 0.187709 0.235481 0.141844
22790 5 0.148652 0.236993 0.15126
22711 4 0.168748 0.143678 0.153494
20092 3 0.220577 0.146056 0.161094
22714 3 0.185126 0.23533 0.162338
22710 3 0.178149 0.179012 0.163049
22932 9 0.176796 0.196074 0.162904
20406 9 0.205826 0.155024 0.164055
22795 7 0.145316 0.237402 0.164665
22933 9 0.198817 0.225885 0.162647
22756 6 0.130568 0.136684 0.17325
20204 6 0.220126 0.199774 0.16077
20167 7 0.23503 0.19143 0.159363
20168 7 0.209772 0.188941 0.1643
20160 5 0.245185 0.241753 0.144098
22720 7 0.138577 0.149161 0.176788
22955 7 0.160028 0.218277 0.184212
22966 7 0.152928 0.191459 0.184887
20164 5 0.245122 0.173268 0.142013
22762 6 0.14588 0.207558 0.187493
20086 8 0.249966 0.147639 0.16627
20088 5 0.260469 0.124801 0.158326
17547 7 0.327789 0.136408 0.162721
17531 1 0.312309 0.143297 0.138675
17538 5 0.341756 0.165802 0.139933
17551 1 0.31881 0.206029 0.139254
17612 5 0.346363 0.237023 0.139628
20087 2 0.266963 0.181181 0.148047
20094 5 0.286575 0.172771 0.140747
20156 2 0.268959 0.233992 0.148498
20161 5 0.288061 0.242912 0.140887
20159 4 0.26764 0.207805 0.148926
20093 4 0.261006 0.173654 0.160031
17536 5 0.358985 0.184349 0.155683
17540 3 0.321568 0.208574 0.160112
17535 2 0.366844 0.243446 0.145913
17854 9 0.308596 0.208397 0.165902
20158 3 0.272931 0.242314 0.160782
17579 6 0.318581 0.148501 0.160176
17534 8 0.352607 0.208427 0.164332
17546 7 0.329907 0.16053 0.157829
17541 4 0.366628 0.232499 0.157035
17533 2 0.36437 0.169131 0.145963
17537 4 0.37075 0.14409 0.14967
17618 7 0.270695 0.189983 0.173138
17651 6 0.2793 0.196923 0.179615
17617 7 0.274038 0.212635 0.179073
17584 6 0.362833 0.203589 0.179839
20136 6 0.250159 0.144833 0.182389
17850 7 0.353619 0.191236 0.184671
17861 7 0.361723 0.218465 0.185109
20402 7 0.258238 0.13269 0.186794
20413 7 0.252835 0.160524 0.186777
14921 7 0.434201 0.155632 0.157796
15274 9 0.467181 0.131158 0.159123
14916 5 0.487967 0.170157 0.139776
14987 5 0.482869 0.239086 0.13678
14909 2 0.468464 0.177479 0.147559
14925 1 0.418652 0.144989 0.138001
14979 1 0.413701 0.204669 0.137779
14981 2 0.464719 0.229322 0.145064
14986 5 0.441829 0.229666 0.139481
14991 5 0.446392 0.173384 0.140981
17539 5 0.384127 0.177422 0.137833
17542 5 0.386756 0.235984 0.138754
14985 4 0.470971 0.204263 0.1487
14995 7 0.398688 0.219281 0.160801
15275 9 0.478098 0.170209 0.163944
14994 7 0.421675 0.22913 0.158014
15027 6 0.414627 0.214734 0.159484
14915 3 0.465353 0.165578 0.159323
14956 6 0.419302 0.14736 0.158741
14920 7 0.414138 0.155509 0.16579
14984 5 0.459684 0.246058 0.154219
14997 7 0.393358 0.177497 0.177053
14996 7 0.41115 0.188117 0.16934
15026 6 0.409261 0.175772 0.17494
25517 7 0.0790923 0.0260554 0.200397
25236 7 0.0323662 0.00313809 0.208892
25237 7 0.0454173 0.0198482 0.214533
22671 1 0.113111 0.0210255 0.234667
25472 9 0.0815333 0.0583967 0.208605
25311 7 0.0333358 0.107315 0.212552
25300 4 0.0737371 0.0836361 0.224499
25296 2 0.0689042 0.109176 0.227297
25270 6 0.0985581 0.0683018 0.189886
25269 6 0.0208837 0.0953852 0.213902
25240 6 0.0824807 0.0140132 0.194254
25231 3 0.0737533 0.0471083 0.213122
25226 2 0.0710879 0.0575606 0.225279
22760 7 0.109531 0.0813751 0.203523
25306 5 0.0473456 0.0495544 0.229131
25201 6 0.0302931 0.0152147 0.21392
25171 1 0.0232183 0.021406 0.234961
25294 1 0.0186098 0.0852062 0.234014
25301 5 0.0461547 0.109589 0.232914
25232 5 0.0903653 0.0489581 0.23362
25302 5 0.0864911 0.120162 0.235123
22619 1 0.122691 0.0847463 0.230945
22717 6 0.118554 0.0873842 0.209826
22685 7 0.126831 0.0477418 0.19168
25312 7 0.00677451 0.105667 0.213995
25506 7 0.101559 0.0159566 0.192872
22758 7 0.113497 0.135507 0.207743
22759 7 0.134088 0.0916216 0.206485
22649 6 0.132246 0.0326585 0.192492
22684 7 0.142478 0.0344025 0.19882
22680 5 0.183467 0.116164 0.228049
22754 5 0.141655 0.116378 0.226364
20096 6 0.218675 0.0166345 0.206536
20097 6 0.211716 0.0882615 0.204784
20101 7 0.20975 0.0272947 0.190474
20133 7 0.221375 0.0790348 0.2004
20134 7 0.230605 0.0295554 0.20667
22673 2 0.166321 0.0453988 0.221131
22675 3 0.16825 0.0514354 0.208311
22676 4 0.168922 0.0196156 0.222248
22679 3 0.162381 0.107307 0.208856
22919 9 0.177745 0.0647046 0.20749
22920 9 0.177043 0.0996414 0.207099
22954 7 0.164033 0.0679598 0.193075
20132 7 0.220225 0.10317 0.204201
22678 5 0.182993 0.0561803 0.229229
22677 5 0.143032 0.0520547 0.226319
22674 2 0.16392 0.120902 0.219918
19990 1 0.218569 0.022477 0.228128
20119 1 0.213812 0.0864839 0.226906
20129 5 0.243076 0.0598204 0.223711
20076 5 0.224546 0.0293657 0.245444
20125 5 0.242861 0.117978 0.219964
12369 7 0.496689 0.21052 0.161377
20072 5 0.220526 0.0886615 0.248456
22672 1 0.191818 0.117375 0.248426
20135 7 0.229334 0.00385794 0.207597
20061 7 0.165615 0.0186651 0.203829
20062 7 0.189178 0.00854909 0.200787
17445 5 0.360727 0.026654 0.248789
17448 5 0.362872 0.0870579 0.246796
17444 5 0.321182 0.0221349 0.243169
17524 5 0.322238 0.0903542 0.241187
17456 7 0.325136 0.0251791 0.201738
17503 6 0.31032 0.0202551 0.203605
17544 6 0.323628 0.0942618 0.200906
17582 7 0.338093 0.0983827 0.197958
17583 7 0.311899 0.0956052 0.194797
20050 2 0.266767 0.0605873 0.217974
20056 3 0.263755 0.0441316 0.208296
20121 2 0.266561 0.112251 0.215991
20124 4 0.270961 0.0860725 0.215197
20366 9 0.27475 0.0470887 0.202141
17501 5 0.345493 0.0577532 0.218263
20057 5 0.285392 0.0542671 0.226766
17497 2 0.367325 0.0465252 0.214215
17495 1 0.315234 0.0223971 0.2245
20126 5 0.2857 0.120214 0.224017
17438 1 0.320965 0.0858516 0.221537
17457 7 0.30181 0.0256377 0.197006
17500 4 0.364424 0.0202656 0.212441
17499 3 0.374597 0.0579324 0.202684
17813 9 0.370092 0.0737095 0.203043
17577 5 0.34542 0.116758 0.220059
20048 1 0.293414 0.0582792 0.24553
17498 2 0.369795 0.121083 0.215305
17504 3 0.374502 0.108788 0.203858
17549 7 0.280523 0.100961 0.192229
20365 9 0.275262 0.00664353 0.205564
20066 1 0.286902 0.118826 0.246996
14959 7 0.390397 0.0453061 0.187197
14893 5 0.460896 0.0864076 0.243753
17437 1 0.385415 0.054669 0.243758
14897 5 0.418538 0.0209435 0.247342
14892 5 0.421297 0.082943 0.238617
17814 9 0.385503 0.114782 0.198996
14954 5 0.445531 0.0503165 0.219211
14950 5 0.490168 0.118147 0.217754
14868 8 0.451023 0.0171871 0.196332
14869 2 0.466043 0.0574803 0.212548
14874 3 0.419709 0.0168342 0.201704
14875 4 0.461459 0.0443698 0.201771
14904 7 0.434386 0.0848763 0.195667
14905 7 0.411326 0.0757938 0.193468
14945 2 0.467927 0.110287 0.212355
14948 4 0.465414 0.0840788 0.212645
14951 6 0.419975 0.0850884 0.199117
15303 9 0.407322 0.0247546 0.196537
14949 5 0.447778 0.120439 0.218315
17505 5 0.387878 0.114208 0.224655
17502 5 0.38451 0.0482775 0.223683
14876 5 0.488487 0.0503996 0.218391
14943 1 0.416072 0.0849243 0.220984
14815 1 0.42132 0.019007 0.22293
14885 1 0.481374 0.119694 0.240021
14866 1 0.491668 0.054329 0.241303
17496 1 0.395418 0.119516 0.245558
14947 3 0.46523 0.119507 0.20027
14823 5 0.460429 0.0229955 0.246881
25507 7 0.0637808 0.13682 0.188138
25299 5 0.062493 0.125494 0.217829
25348 7 0.0222502 0.136401 0.1938
25518 7 0.0829827 0.157659 0.19237
22742 1 0.11333 0.151491 0.231766
25376 5 0.0408595 0.188198 0.230174
25366 1 0.0160676 0.211921 0.230864
25372 5 0.0448559 0.250427 0.228259
25512 9 0.0109923 0.155483 0.208362
25381 7 0.0050833 0.21921 0.204371
25371 4 0.0685503 0.21475 0.223466
25368 2 0.0673354 0.240754 0.224026
25343 6 0.0170019 0.211332 0.208807
25314 6 0.0672631 0.150058 0.193706
25304 4 0.06146 0.172292 0.217376
25303 3 0.0238819 0.146766 0.211843
25298 2 0.0651741 0.18931 0.226276
25297 8 0.0560458 0.148516 0.208896
22960 9 0.1024 0.226302 0.210346
22718 6 0.11298 0.150889 0.209922
25345 7 0.0427866 0.182107 0.187225
25242 1 0.0196877 0.148768 0.230514
25346 7 0.0317586 0.203664 0.191275
12292 7 0.501993 0.00800754 0.162732
25305 5 0.0819379 0.183546 0.235141
22751 3 0.114394 0.213209 0.210973
22690 1 0.117008 0.212808 0.230337
15262 9 0.474892 0.174859 0.197493
20170 7 0.194409 0.159173 0.190793
20169 7 0.220317 0.157428 0.189966
22757 7 0.128246 0.151403 0.213359
20203 6 0.207987 0.167823 0.191503
22743 1 0.187765 0.243809 0.245876
20143 5 0.214409 0.213486 0.245841
20206 7 0.177819 0.246112 0.198283
22755 6 0.159843 0.155102 0.191874
22721 7 0.16012 0.138978 0.194036
22722 7 0.157573 0.164965 0.198917
22750 5 0.185003 0.183408 0.224994
20165 6 0.203387 0.208163 0.203663
20207 7 0.193662 0.218365 0.198469
20208 7 0.203354 0.193537 0.198885
22744 2 0.163488 0.17293 0.2198
22745 8 0.143176 0.210914 0.203465
22747 5 0.15747 0.188999 0.210482
22748 4 0.16658 0.146132 0.216904
22752 4 0.159342 0.234725 0.209126
20190 1 0.210068 0.210991 0.223713
20067 1 0.216282 0.148793 0.224716
22749 5 0.142092 0.172914 0.227373
20197 5 0.242784 0.243735 0.220236
20202 5 0.24176 0.17909 0.219904
22753 5 0.184044 0.24426 0.225668
20147 5 0.21762 0.145217 0.246748
20166 6 0.185351 0.243596 0.191064
22689 1 0.183892 0.179616 0.248503
20123 3 0.269052 0.121611 0.204106
17523 5 0.359707 0.210281 0.244514
20137 1 0.284234 0.242853 0.24286
20120 1 0.289013 0.182103 0.245875
17570 2 0.365302 0.245807 0.211342
17569 2 0.366378 0.172524 0.212488
20368 9 0.269865 0.177051 0.198668
20198 5 0.284418 0.246205 0.220593
17567 1 0.314474 0.148927 0.225158
17650 5 0.341756 0.240071 0.215439
17515 1 0.317917 0.211899 0.219693
20196 4 0.265348 0.211263 0.213019
20367 9 0.272999 0.138092 0.20427
17573 5 0.342695 0.177194 0.217219
17545 6 0.311004 0.205285 0.199457
17580 7 0.301656 0.199063 0.193725
17581 7 0.324263 0.19523 0.199668
20122 2 0.265697 0.18546 0.215483
20127 3 0.271941 0.168873 0.206002
20192 2 0.264771 0.237272 0.214131
20128 5 0.281319 0.179264 0.225468
17571 3 0.364358 0.177562 0.200122
17815 9 0.376144 0.187724 0.197087
17595 5 0.321608 0.211775 0.239213
17572 4 0.371984 0.147278 0.213198
17575 3 0.374014 0.234864 0.200417
17520 5 0.321362 0.154118 0.246992
17521 5 0.362871 0.148651 0.248063
17816 9 0.382193 0.247275 0.195668
14887 2 0.438069 0.0809661 0.248661
14962 1 0.485568 0.248812 0.238473
17514 1 0.386269 0.182299 0.242247
14944 1 0.491814 0.183264 0.243127
14946 2 0.470128 0.187033 0.213824
14957 7 0.414194 0.143633 0.190924
15019 3 0.472599 0.240551 0.196693
14964 2 0.441096 0.210324 0.248977
14886 1 0.421676 0.147703 0.219459
14958 7 0.396923 0.149297 0.198828
14992 6 0.412155 0.206686 0.197588
17568 1 0.391112 0.243683 0.241542
15020 4 0.468309 0.2132 0.212771
15015 1 0.414804 0.211092 0.218675
14919 6 0.412189 0.141981 0.19881
15261 9 0.450279 0.12598 0.199049
14889 2 0.438979 0.158512 0.246615
14968 5 0.420193 0.216293 0.242364
17574 5 0.385538 0.184115 0.218915
15025 5 0.445849 0.177673 0.215036
15031 7 0.395095 0.211833 0.197431
15030 7 0.412993 0.195612 0.191322
15263 9 0.477065 0.226139 0.193291
14953 5 0.485874 0.18218 0.22387
15022 5 0.486722 0.248099 0.214983
17576 5 0.382414 0.239559 0.220324
14896 5 0.462067 0.147557 0.244423
15021 5 0.443534 0.246246 0.214392
14969 5 0.462511 0.219674 0.24258
15017 2 0.466703 0.237672 0.209118
14972 5 0.422848 0.154401 0.237146
25416 7 0.0497612 0.2447 0.185952
22824 5 0.142595 0.246397 0.227165
22651 7 0.147394 0.00661768 0.166594
20378 9 0.261429 0.00925649 0.165928
25325 5 0.0225118 0.150027 0.24893
25347 7 0.00445102 0.119399 0.188993
20243 7 0.228977 0.250147 0.158814
20380 9 0.287871 0.250529 0.161088
25370 3 0.0745682 0.250551 0.21262
20205 7 0.200932 0.249641 0.191804
22830 7 0.0930442 0.250566 0.199203
25365 7 0.0245826 0.246349 0.108997
20023 6 0.172912 0.00547316 0.200488
20073 5 0.263127 0.0915238 0.249548
25178 3 0.0292132 0.0157278 0.274518
25245 3 0.0374378 0.099371 0.273596
25256 7 0.0816564 0.0408797 0.278892
25257 7 0.106777 0.0444827 0.279249
25288 6 0.0926518 0.0521444 0.276774
25497 9 0.0524848 0.101174 0.277443
25251 5 0.0230634 0.0267374 0.253294
25248 5 0.062482 0.0837402 0.257843
25247 5 0.0192622 0.086681 0.256842
25246 4 0.037624 0.0552132 0.2672
25243 2 0.0402711 0.0813144 0.263947
25241 1 0.0889674 0.118231 0.255316
25224 1 0.0932948 0.054203 0.255251
25179 5 0.060865 0.0214005 0.260043
25173 2 0.0373227 0.0294417 0.264154
25289 6 0.0923474 0.109696 0.276575
25255 7 0.100828 0.096514 0.278114
22624 5 0.121737 0.0237992 0.255846
24655 7 0.0748458 0.062863 0.307606
25496 9 0.0302203 0.0252525 0.281368
22699 5 0.119591 0.0803931 0.254032
24654 7 0.100033 0.0692147 0.311522
25515 7 0.0260258 0.109582 0.289291
22618 1 0.187672 0.0545681 0.251136
25254 7 0.103641 0.122028 0.277662
25313 6 0.0173299 0.123198 0.293952
24640 8 0.0199626 0.121685 0.309853
25498 9 0.0322201 0.129303 0.27129
22267 9 0.132293 0.0470547 0.312263
22268 9 0.128267 0.0906759 0.308774
22943 9 0.14799 0.0275189 0.281655
19999 4 0.235579 0.0154059 0.264219
20070 3 0.241568 0.100059 0.266742
20391 9 0.226107 0.101509 0.269019
22622 3 0.137186 0.0324241 0.274889
22626 3 0.139957 0.0816666 0.272059
22632 7 0.191663 0.069565 0.29611
22666 6 0.188056 0.0598093 0.302717
22944 9 0.136185 0.065463 0.272112
19993 2 0.242324 0.0321446 0.254836
20068 2 0.241336 0.0840114 0.255513
20071 4 0.239977 0.0580065 0.257543
22620 2 0.141911 0.0183423 0.264611
22621 2 0.1402 0.0908236 0.259836
22625 5 0.164043 0.0238024 0.258466
22694 4 0.141154 0.116988 0.259295
22736 6 0.189135 0.108606 0.270375
22633 7 0.171554 0.0388949 0.296722
22665 6 0.164899 0.0254783 0.293336
22634 7 0.149204 0.0249716 0.2964
22631 7 0.203133 0.0578047 0.305643
19468 3 0.23742 0.102389 0.307685
19715 9 0.236359 0.117813 0.308715
22032 7 0.200804 0.0122254 0.306638
22704 7 0.174901 0.0993244 0.269139
19714 9 0.23481 0.0101077 0.311364
19398 3 0.230665 0.0263186 0.31078
22031 7 0.17522 0.00881905 0.304127
22030 7 0.182972 0.119241 0.299085
22705 7 0.183295 0.121603 0.274102
20409 9 0.191376 0.00616334 0.281699
22627 5 0.161892 0.0829071 0.253123
17440 8 0.319468 0.0589514 0.270147
17442 5 0.325807 0.035412 0.261221
17446 3 0.289046 0.0580093 0.265942
17447 4 0.331048 0.0793895 0.260851
17857 9 0.27672 0.0704554 0.265841
20082 7 0.27683 0.112313 0.271952
20113 6 0.286591 0.123353 0.268728
17439 2 0.337236 0.0204751 0.253106
17441 2 0.339006 0.0940099 0.250954
17519 4 0.337724 0.118891 0.254367
17513 6 0.320154 0.0664951 0.285683
17863 7 0.304894 0.0703375 0.290166
17864 7 0.33033 0.0578706 0.291441
17162 9 0.322314 0.0926765 0.301407
17453 7 0.347977 0.110788 0.289273
19365 6 0.280623 0.0676625 0.305098
19403 7 0.278393 0.084649 0.305448
16842 3 0.332808 0.0437664 0.308012
19439 6 0.287837 0.119369 0.304724
19480 7 0.271585 0.123413 0.303337
17161 9 0.335605 0.0602714 0.308468
16846 3 0.338071 0.0900716 0.304403
20005 7 0.277711 0.0124358 0.263125
20004 7 0.302234 0.0155282 0.268789
17488 6 0.356183 0.118343 0.283884
19404 7 0.26654 0.0634953 0.303014
1999 7 0.0019937 0.15821 0.277531
20040 6 0.291264 0.00405269 0.266686
22293 9 0.18488 0.00775135 0.379241
17452 7 0.369142 0.123849 0.287826
14822 3 0.443481 0.0228925 0.265793
14827 7 0.487289 0.0598189 0.270435
14828 7 0.478062 0.0420861 0.261948
14860 6 0.490898 0.0527882 0.263178
14888 8 0.429141 0.122188 0.266712
14890 5 0.432841 0.0993417 0.257467
14894 3 0.397668 0.119748 0.266005
14902 7 0.496178 0.0875474 0.281988
14903 7 0.470528 0.0925613 0.283114
14935 6 0.481487 0.0802982 0.281593
17454 7 0.443354 0.0408259 0.282929
14817 2 0.438793 0.0301225 0.253384
14649 9 0.431875 0.208152 0.477298
1431 7 -0.0011723 0.240442 0.491923
14891 4 0.43675 0.0569694 0.253621
17487 6 0.439532 0.0531039 0.288245
17455 7 0.45143 0.064664 0.287815
15312 7 0.438082 0.119708 0.287639
15286 9 0.437415 0.00794776 0.267132
14609 9 0.443432 0.0803668 0.298531
16853 7 0.399801 0.00556544 0.295917
14608 9 0.435249 0.035954 0.299513
14302 7 0.47649 0.0515586 0.303847
14260 6 0.491854 0.0545072 0.301231
15305 9 0.388385 0.121305 0.273899
14290 3 0.441541 0.0933829 0.303284
14301 7 0.489846 0.0573323 0.293048
14218 3 0.433714 0.0243198 0.305387
14264 7 0.498244 0.0668527 0.469493
14261 6 0.482685 0.122217 0.300187
16851 7 0.407277 0.108508 0.30438
14299 7 0.488412 0.113091 0.293532
25504 7 0.0218928 0.138417 0.289596
25249 3 0.0238613 0.14234 0.268834
25319 3 0.0341869 0.218515 0.272819
25330 7 0.0754717 0.183074 0.279408
25331 7 0.100818 0.183214 0.283438
25360 6 0.09224 0.179377 0.276551
25499 9 0.0325149 0.235239 0.272375
25322 5 0.0601768 0.216475 0.256664
25321 5 0.0194257 0.217715 0.252911
25320 4 0.0355984 0.182176 0.260833
25317 2 0.0374852 0.208385 0.261142
25315 1 0.0838713 0.24507 0.25544
25295 1 0.090918 0.181066 0.255021
25250 5 0.0605434 0.148542 0.256855
25244 2 0.0361183 0.155189 0.25954
22695 5 0.117647 0.152041 0.254523
22773 5 0.116037 0.209843 0.252598
24688 6 0.0812157 0.248825 0.276956
24727 7 0.0796616 0.251092 0.284527
1996 7 0.0429879 0.199729 0.284931
1997 7 0.0399026 0.19497 0.296858
2031 6 0.0476008 0.189088 0.290565
22319 9 0.0789323 0.192117 0.300571
24725 7 0.0537909 0.240082 0.304532
22094 3 0.0908095 0.187378 0.307097
24715 3 0.0303823 0.218164 0.307332
24821 9 0.0152709 0.225534 0.306965
1395 7 0.00343437 0.167886 0.311188
22088 8 0.12235 0.187048 0.303517
24726 7 0.0646721 0.246995 0.275509
24582 7 0.0948533 0.0109109 0.310753
1394 7 0.0019419 0.193389 0.307272
20392 9 0.240543 0.132036 0.267333
22696 5 0.159417 0.151455 0.252133
21992 6 0.188622 0.125452 0.305976
22029 7 0.203107 0.131296 0.303526
22945 9 0.160367 0.159368 0.272081
22761 6 0.136209 0.181481 0.289467
22963 7 0.135185 0.192733 0.282365
22952 7 0.138831 0.165905 0.285098
20074 3 0.238401 0.148592 0.265979
20141 3 0.23038 0.215969 0.264695
20393 9 0.215114 0.223052 0.264524
22693 3 0.145422 0.150467 0.272063
22697 3 0.139787 0.215145 0.271283
22702 7 0.193575 0.181772 0.275682
22703 7 0.172391 0.193819 0.271447
22737 6 0.183227 0.180311 0.269976
22946 9 0.142104 0.229843 0.27512
20069 2 0.237735 0.154301 0.253258
20139 2 0.235836 0.206406 0.252467
20142 4 0.236169 0.180081 0.252438
22691 2 0.139895 0.142771 0.260305
22692 2 0.13785 0.219097 0.258628
22698 5 0.158617 0.211674 0.251885
22768 4 0.135867 0.245471 0.258132
22062 6 0.219665 0.175514 0.285422
22102 7 0.226129 0.167056 0.279344
22103 7 0.220842 0.191085 0.282951
22100 7 0.192422 0.183337 0.299254
19716 9 0.226309 0.165654 0.300937
14331 5 0.460891 0.21226 0.457969
22063 6 0.192165 0.192853 0.305457
22808 6 0.18905 0.248366 0.267392
19472 3 0.231633 0.15426 0.306325