ITEM: TIMESTEP
333000
ITEM: NUMBER OF ATOMS
25520
ITEM: BOX BOUNDS pp pp pp
-3.7619492304693258e-01 6.0074738513047677e+01
-1.9317126315732414e+00 5.9101997905573974e+01
-1.2618133631543188e+01 1.1189386603754897e+02
ITEM: ATOMS id type xs ys zs
25182 6 0.10911 0.0177182 0.153748
25252 6 0.112552 0.0796699 0.151067
25214 3 0.044994 0.0412448 0.157086
25287 5 0.0362998 0.0492203 0.176501
25283 5 0.0754649 0.112736 0.169861
25282 5 0.0367086 0.111885 0.176477
25281 4 0.0496205 0.0800193 0.16522
25277 2 0.0521778 0.105976 0.167183
25215 5 0.0778265 0.0506452 0.169429
25209 2 0.0523452 0.0555257 0.167223
25188 1 0.106691 0.0827131 0.170609
25458 9 0.0579803 0.0378159 0.153323
25206 1 0.100429 0.0197757 0.172989
2433 1 0.0089259 0.01865 0.175336
25219 7 0.107414 0.0257003 0.146711
25220 7 0.12427 0.015801 0.155124
25293 7 0.122753 0.0904973 0.148772
25280 5 0.0440192 0.123334 0.159035
1949 1 0.00154672 0.0834798 0.174175
25292 7 0.123054 0.0661178 0.151401
22735 5 0.133687 0.114912 0.16994
22660 5 0.1367 0.0534911 0.171344
22905 9 0.160736 0.0472156 0.147111
22662 3 0.146955 0.111941 0.151542
22658 3 0.150365 0.0504683 0.152096
22656 2 0.154787 0.0444483 0.163784
20112 5 0.237996 0.0510553 0.173184
22663 5 0.17517 0.114671 0.166073
22654 1 0.199899 0.0845569 0.166619
22661 5 0.177218 0.0536548 0.166911
22669 7 0.228555 0.0252166 0.148465
22659 4 0.155107 0.0193676 0.165221
22563 1 0.207 0.0182312 0.168905
22629 6 0.217407 0.0140539 0.148892
22630 6 0.213775 0.0804164 0.146901
22667 7 0.211539 0.0760707 0.139751
22668 7 0.228819 0.0772488 0.148482
20108 5 0.234618 0.115347 0.168525
22906 9 0.151561 0.120377 0.145606
22657 2 0.151936 0.121669 0.162417
22670 7 0.226603 0.00121758 0.148185
22572 5 0.197809 0.0192715 0.187829
20106 3 0.252815 0.109453 0.149324
20036 3 0.250588 0.0515881 0.153652
20352 9 0.264777 0.0516844 0.149555
20042 7 0.307835 0.0122188 0.144456
20107 4 0.256699 0.0830903 0.164698
20104 2 0.255022 0.107826 0.162117
20031 2 0.256218 0.0581406 0.16548
20118 7 0.320114 0.0880756 0.148204
20117 7 0.327527 0.066235 0.149892
20077 6 0.314331 0.074118 0.150294
17480 3 0.351503 0.0463595 0.153485
17799 9 0.363809 0.0421885 0.149089
17478 2 0.355854 0.040682 0.165624
20109 5 0.277959 0.115407 0.165425
17482 5 0.336188 0.0481171 0.172529
20037 5 0.280214 0.0518447 0.168459
20011 1 0.306339 0.0810849 0.17055
20028 1 0.303949 0.0153406 0.17086
17481 4 0.352825 0.0147822 0.166661
20003 6 0.304931 0.0208579 0.151183
17560 5 0.3349 0.115692 0.1727
17484 3 0.346255 0.111134 0.153104
20041 7 0.315718 0.0322192 0.150196
17479 2 0.353083 0.120219 0.164406
20353 9 0.266424 0.113884 0.146012
17483 5 0.377759 0.0490292 0.169278
17485 5 0.375927 0.111091 0.167504
17490 7 0.412785 0.0954996 0.142265
17489 7 0.421657 0.093998 0.153574
17451 6 0.408857 0.089405 0.149423
14856 3 0.450588 0.0454164 0.155888
15246 9 0.456929 0.0542258 0.149781
14929 4 0.449673 0.0831893 0.164454
14926 2 0.452738 0.108363 0.166298
14851 2 0.45285 0.0578682 0.166786
14931 5 0.476212 0.112084 0.170577
14857 5 0.47704 0.0558607 0.171038
17476 1 0.400284 0.0821841 0.169653
14934 5 0.433924 0.049561 0.173686
14930 5 0.435175 0.114557 0.174361
17384 1 0.407218 0.0172736 0.172921
17450 6 0.414958 0.0140958 0.153057
17492 7 0.426206 0.0266647 0.154114
17491 7 0.411975 0.0143888 0.145166
14928 3 0.445245 0.120686 0.155716
14861 7 0.490163 0.00659171 0.150023
14870 5 0.461676 0.0285778 0.24944
2103 7 0.0178185 0.211445 0.154549
14913 5 0.499767 0.141762 0.192559
2065 6 0.0045725 0.201587 0.1548
2033 7 0.0535519 0.14013 0.132955
25253 6 0.104235 0.139514 0.150255
2032 7 0.0489611 0.166883 0.134612
1995 6 0.0410709 0.15098 0.136204
25275 1 0.0997425 0.147103 0.170594
25278 8 0.0349359 0.145886 0.151336
22957 9 0.0938157 0.207072 0.147335
22732 3 0.106396 0.21003 0.152656
25285 4 0.0441056 0.168411 0.158834
25359 5 0.0362254 0.17705 0.177476
25356 5 0.0752126 0.242721 0.169526
25354 4 0.0509608 0.208487 0.167228
25351 2 0.0529615 0.233641 0.166594
25286 5 0.0752311 0.178241 0.170696
25279 2 0.0518615 0.183545 0.168
25259 1 0.106105 0.210764 0.171943
25355 5 0.0347654 0.24171 0.174548
25433 7 0.0507245 0.193789 0.146573
25394 6 0.0557883 0.201641 0.140444
25432 7 0.056123 0.216423 0.143578
1933 1 0.00585952 0.145004 0.175487
25291 7 0.112368 0.146337 0.144271
25353 3 0.0489774 0.240651 0.154845
2104 7 0.0113122 0.18776 0.157253
25284 3 0.00552699 0.142562 0.156522
25290 7 0.114355 0.127031 0.15087
1963 7 0.150778 0.226444 0.131092
1962 7 0.15587 0.20027 0.131664
22741 7 0.222217 0.127532 0.147482
22740 7 0.227025 0.151488 0.147847
1927 6 0.142977 0.212431 0.133532
22726 8 0.136959 0.209574 0.149249
22730 5 0.13741 0.177613 0.174338
22700 6 0.214437 0.141085 0.148837
22636 1 0.20683 0.145077 0.167881
22729 4 0.149876 0.147312 0.162206
22733 4 0.145553 0.231773 0.157411
20188 7 0.218003 0.21775 0.153109
20189 7 0.199412 0.230453 0.148204
20148 6 0.202044 0.217283 0.152065
22728 5 0.147251 0.18839 0.15705
22725 2 0.153326 0.171595 0.165343
20178 5 0.233911 0.242978 0.173745
20183 5 0.235218 0.178925 0.172311
22723 1 0.199514 0.209418 0.171936
22731 5 0.176287 0.177797 0.168916
22734 5 0.17449 0.238059 0.17161
22807 5 0.135305 0.242818 0.175569
20110 3 0.244978 0.175592 0.153049
20354 9 0.24417 0.187856 0.147786
22727 2 0.152539 0.246471 0.166756
2017 1 0.000845183 0.208128 0.175589
17800 9 0.349567 0.122752 0.147803
20177 4 0.248664 0.211122 0.162856
20173 2 0.252033 0.236323 0.165821
20105 2 0.252359 0.185066 0.164171
17555 4 0.351817 0.145762 0.163597
20102 1 0.301933 0.147302 0.168655
17554 3 0.34225 0.180338 0.152246
17801 9 0.346362 0.195895 0.151704
17558 3 0.343947 0.226613 0.154418
17552 2 0.351775 0.170581 0.162715
17556 5 0.33546 0.177201 0.172179
20111 5 0.275779 0.180145 0.166853
20084 1 0.307219 0.207569 0.170307
20179 5 0.27614 0.240085 0.169477
17631 5 0.337493 0.239997 0.172369
17802 9 0.346225 0.231896 0.147299
17553 2 0.352418 0.244589 0.162893
15247 9 0.4575 0.129868 0.153517
17557 5 0.375761 0.17869 0.165361
17559 5 0.376518 0.240636 0.1651
17564 7 0.388129 0.20985 0.144628
17566 7 0.417866 0.132241 0.15036
17563 7 0.408941 0.225368 0.146321
14938 7 0.449044 0.19254 0.140951
14937 7 0.435379 0.211691 0.138007
17565 7 0.403199 0.150283 0.144256
17525 6 0.408356 0.144791 0.150741
17459 1 0.404137 0.145829 0.170203
17526 6 0.40287 0.210781 0.147625
14899 6 0.45022 0.206425 0.137121
15248 9 0.439773 0.165587 0.151293
15002 3 0.459969 0.240038 0.152145
14932 3 0.455625 0.168334 0.152924
15000 2 0.459287 0.231199 0.163668
15003 4 0.456343 0.206942 0.164376
14927 2 0.455592 0.180929 0.164168
15005 5 0.480495 0.240368 0.16848
14933 5 0.476819 0.172702 0.169389
15004 5 0.438471 0.238233 0.169436
17550 1 0.40003 0.207213 0.168993
15008 5 0.435377 0.174055 0.170109
15249 9 0.454635 0.228547 0.146907
14940 7 0.483116 0.151677 0.150684
14898 6 0.495224 0.141235 0.152201
14939 7 0.50277 0.141387 0.145542
25231 3 0.0676306 0.0754846 0.248358
17539 5 0.396835 0.20754 0.188026
25269 6 0.00581153 0.11632 0.243063
25471 9 0.0721111 0.0164551 0.24497
25198 5 0.100262 0.084307 0.190774
25195 5 0.102423 0.0193221 0.19248
25268 5 0.0616805 0.0802364 0.194369
25258 1 0.0291709 0.112894 0.195125
25207 1 0.0366134 0.0512849 0.197576
25191 2 0.0818295 0.090138 0.198984
25263 4 0.0815423 0.11453 0.2
25197 4 0.0840427 0.0769591 0.209475
25192 5 0.0823745 0.0296917 0.209927
25196 3 0.0454971 0.0566151 0.215666
25190 8 0.0766694 0.0529335 0.218119
25510 9 0.0343954 0.0609864 0.221582
25517 7 0.094971 0.0749233 0.232905
25240 6 0.0932408 0.0570579 0.231336
22685 7 0.0850244 0.101428 0.219161
25506 7 0.0841468 0.0539417 0.238842
22649 6 0.0910791 0.11094 0.224567
25194 5 0.0628623 0.0121059 0.196791
25189 2 0.0857451 0.0126301 0.201768
25201 6 0.0226781 0.0459838 0.244403
25309 7 0.0377724 0.111929 0.240808
22684 7 0.0793716 0.114301 0.229693
25270 6 0.0484242 0.11198 0.234985
25236 7 0.0177167 0.030574 0.245725
25237 7 0.0379829 0.0444881 0.246932
25271 7 0.0290155 0.115281 0.222709
22760 7 0.111768 0.126014 0.239902
25308 6 0.0248416 0.116145 0.215287
22717 6 0.115108 0.11267 0.244486
25205 7 0.0193326 0.0129303 0.215838
25204 7 0.0425254 0.0243958 0.218769
25310 7 0.0598917 0.102452 0.237205
20165 6 0.207329 0.246078 0.242781
2441 5 0.00089105 0.0163863 0.19609
22650 7 0.130996 0.0707013 0.218196
14925 1 0.432376 0.175166 0.190942
22682 6 0.135517 0.00245908 0.21492
20062 7 0.140339 0.0626636 0.235742
22958 9 0.125417 0.112314 0.215134
22759 7 0.119885 0.102421 0.238709
22955 7 0.165944 0.250103 0.222192
22652 7 0.148791 0.00981298 0.217519
20061 7 0.156196 0.07539 0.228813
22651 7 0.142383 0.0761172 0.207355
22683 6 0.133452 0.0643346 0.210887
22643 5 0.196636 0.0853786 0.187497
22686 7 0.160949 0.0175533 0.229504
22635 1 0.129159 0.0531871 0.191661
20083 1 0.228367 0.113213 0.188868
20134 7 0.227933 0.0667278 0.240255
22687 7 0.170782 0.0420363 0.230695
22648 6 0.157522 0.0328985 0.231532
20023 6 0.143252 0.077555 0.233498
22919 9 0.161453 0.0871377 0.243862
22931 9 0.199494 0.0301987 0.212195
22655 1 0.133404 0.115759 0.191275
20029 1 0.232331 0.0507013 0.191208
22642 5 0.157247 0.0789675 0.191855
20063 7 0.194563 0.0805631 0.225324
22637 2 0.180733 0.07721 0.19566
22641 4 0.183678 0.0531209 0.198454
22565 2 0.183089 0.0271062 0.197288
22640 5 0.17885 0.0909684 0.20568
20060 6 0.229662 0.0443191 0.211397
20022 6 0.188389 0.0662866 0.224597
20064 7 0.185337 0.0662835 0.217115
22647 5 0.159796 0.0203579 0.194756
20096 6 0.217666 0.0589293 0.244009
22571 3 0.190119 0.0182388 0.208692
22638 8 0.167849 0.112114 0.214071
22918 9 0.161408 0.0177589 0.244149
22965 7 0.175734 0.113453 0.235274
20135 7 0.203988 0.0641184 0.239696
20098 7 0.234694 0.102364 0.214475
20025 7 0.224494 0.0545574 0.216675
20131 6 0.226092 0.11239 0.209789
22644 3 0.137702 0.111554 0.209569
20130 6 0.243962 0.0826938 0.22651
20133 7 0.217708 0.118286 0.240131
20099 7 0.215364 0.116207 0.215735
22688 6 0.183466 0.118232 0.227526
20097 6 0.218078 0.125749 0.247304
20024 7 0.244636 0.0452726 0.213828
17471 6 0.239599 0.0045745 0.230209
17510 7 0.231307 0.0170025 0.228945
22675 3 0.171263 0.0929375 0.249414
20056 3 0.268148 0.0852992 0.246865
20051 3 0.271848 0.0209743 0.246557
20101 7 0.251231 0.0821864 0.233056
20365 9 0.262164 0.0143478 0.241546
20020 5 0.296211 0.079357 0.191215
20017 5 0.297556 0.0161556 0.190225
20016 5 0.257216 0.0171206 0.194162
17477 1 0.331855 0.115409 0.192693
17458 1 0.324593 0.050715 0.191813
20095 5 0.255118 0.0808329 0.194608
17464 5 0.354225 0.0871115 0.194506
20013 2 0.277654 0.0866448 0.198895
20379 9 0.287242 0.0636822 0.210398
20089 4 0.280563 0.112566 0.198795
20019 3 0.285852 0.0793139 0.210406
20378 9 0.297298 0.024925 0.212353
17466 6 0.322654 0.0520457 0.213221
17493 7 0.311825 0.0608398 0.216589
17494 7 0.337659 0.0571079 0.216229
17473 7 0.340268 0.110583 0.216491
14960 7 0.35946 0.0796862 0.217461
17548 7 0.28377 0.103454 0.223237
14918 6 0.346719 0.0822465 0.221449
14959 7 0.351106 0.0823778 0.229195
17469 5 0.354687 0.0166532 0.196015
17456 7 0.296388 0.0404184 0.244344
17457 7 0.291609 0.0646334 0.243801
20014 3 0.282902 0.0282229 0.208852
20012 2 0.280765 0.0122558 0.198946
17503 6 0.304263 0.0548717 0.244233
17499 3 0.366224 0.0873802 0.244622
20366 9 0.27666 0.0968846 0.243241
20100 7 0.256123 0.0783618 0.221914
17508 6 0.330926 0.122272 0.212912
17578 6 0.284804 0.11931 0.224524
17472 7 0.315569 0.117691 0.214891
17860 7 0.367294 -0.000310926 0.224766
17813 9 0.379121 0.0971387 0.244952
17583 7 0.307199 0.117276 0.235984
17544 6 0.308846 0.122777 0.243577
14847 7 0.388011 0.0143571 0.235095
17465 5 0.395094 0.0817803 0.188473
14846 7 0.407952 0.0298587 0.236177
14878 6 0.402527 0.0173804 0.232305
17463 4 0.373097 0.0521328 0.198935
17460 2 0.376993 0.0772868 0.197379
17386 2 0.376583 0.0271064 0.198729
15272 9 0.488019 0.0174205 0.216295
17462 3 0.383947 0.0883064 0.208629
17391 3 0.381587 0.0193701 0.210586
14906 1 0.427375 0.113462 0.193264
17392 5 0.396331 0.0189433 0.19253
17826 9 0.398814 0.0827746 0.210446
14849 1 0.430881 0.0520548 0.194794
14917 5 0.455658 0.0803799 0.197708
14837 5 0.457455 0.0232028 0.197859
14911 4 0.479995 0.11412 0.201196
14834 2 0.478205 0.0892157 0.202482
14839 3 0.481314 0.0822626 0.214316
14955 6 0.417584 0.0514838 0.21377
15273 9 0.482782 0.0958441 0.219084
14922 7 0.425388 0.0458221 0.219541
14923 7 0.403013 0.0490404 0.216062
15308 7 0.468262 0.0538127 0.221931
14884 6 0.456786 0.0427188 0.226359
15297 7 0.464149 0.0268131 0.225018
15303 9 0.409618 0.0621422 0.240966
14868 8 0.450705 0.0503669 0.241143
14835 3 0.491034 0.0271796 0.210594
14874 3 0.420969 0.0530933 0.244972
14833 2 0.481137 0.0152067 0.200052
14951 6 0.406595 0.119138 0.24355
12291 6 0.441184 0.0974271 0.230919
14904 7 0.41741 0.115767 0.238244
12329 7 0.452317 0.0908493 0.226006
17825 9 0.396118 0.0137808 0.211064
14942 7 0.427563 0.113072 0.220535
14914 6 0.423024 0.116914 0.213485
12328 7 0.447323 0.0967227 0.237771
14838 5 0.498186 0.0194222 0.191296
14875 4 0.460488 0.0734747 0.24858
14840 5 0.497145 0.0792355 0.196418
14941 7 0.408626 0.124062 0.214016
12366 6 0.484755 0.120122 0.22825
25272 7 0.017047 0.130398 0.215109
25304 4 0.0616801 0.200627 0.249334
25343 6 0.00436736 0.240257 0.240609
25484 9 0.0904589 0.13229 0.215795
25267 5 0.0996458 0.210124 0.191674
25265 5 0.0979373 0.146972 0.190991
25348 7 0.0278338 0.174156 0.223615
25347 7 0.0115259 0.177607 0.2137
25512 9 0.0103311 0.173844 0.238066
25303 3 0.0224247 0.175155 0.244053
25260 2 0.0817149 0.13956 0.199524
25264 5 0.0573985 0.147525 0.197691
25332 1 0.030039 0.240936 0.195082
25276 1 0.0347542 0.176596 0.194954
25342 5 0.0593505 0.210077 0.19636
25337 4 0.0805918 0.242309 0.200756
25261 2 0.0821284 0.217131 0.200109
25266 3 0.0848015 0.205977 0.211958
25262 3 0.0909441 0.146119 0.211206
25485 9 0.0995185 0.20567 0.213528
22720 7 0.107666 0.172483 0.212741
25377 6 0.0277068 0.174866 0.215157
25507 7 0.0663091 0.184208 0.222372
25518 7 0.0693761 0.156991 0.224401
25314 6 0.0707838 0.172083 0.228706
25297 8 0.0532515 0.177107 0.241453
22718 6 0.116602 0.161336 0.247194
22830 7 0.0731226 0.234221 0.226011
22791 6 0.068809 0.247608 0.229782
22829 7 0.0698425 0.241929 0.237027
25378 6 0.0299556 0.247378 0.215857
25381 7 0.0104737 0.243924 0.233174
14916 5 0.498586 0.205577 0.191462
22757 7 0.130169 0.152021 0.248654
22758 7 0.121791 0.170654 0.240743
22751 3 0.119914 0.235586 0.24309
22960 9 0.110362 0.22177 0.240954
22825 6 0.121067 0.238168 0.21381
20045 7 0.219028 0.00318225 0.211684
20132 7 0.20194 0.125705 0.248392
25234 6 0.0341025 0.00937684 0.217512
22756 6 0.122976 0.177682 0.212236
22646 5 0.198409 0.144254 0.187778
22954 7 0.185295 0.136167 0.228769
22795 7 0.124023 0.238355 0.221523
22706 1 0.128022 0.178667 0.192556
22713 5 0.197662 0.20961 0.192656
20103 1 0.231576 0.178383 0.191949
22719 7 0.129018 0.171842 0.219034
22716 5 0.157083 0.144015 0.192458
20154 1 0.227905 0.239801 0.194121
22724 1 0.132477 0.241492 0.194279
22722 7 0.149606 0.189947 0.238622
22645 4 0.178565 0.13338 0.205602
22712 5 0.157691 0.209983 0.19568
22639 2 0.180538 0.149612 0.196002
22708 2 0.179735 0.20071 0.199525
22711 4 0.182613 0.175688 0.1986
22710 3 0.185844 0.206777 0.211438
22932 9 0.18885 0.192401 0.215359
20167 7 0.211981 0.225206 0.213158
20204 6 0.223192 0.236732 0.21404
20092 3 0.235727 0.174304 0.211491
22721 7 0.15311 0.163592 0.238289
20406 9 0.223329 0.172141 0.217447
22966 7 0.167945 0.222195 0.221674
22745 8 0.149455 0.238076 0.240435
20166 6 0.187739 0.169407 0.222989
20206 7 0.173321 0.172756 0.226389
22755 6 0.145681 0.175781 0.234165
20205 7 0.182775 0.166108 0.215661
22762 6 0.161478 0.235077 0.226
22679 3 0.168422 0.14171 0.247095
15027 6 0.428234 0.243367 0.210218
20169 7 0.228833 0.224473 0.235944
20203 6 0.24003 0.214712 0.232518
14985 4 0.482668 0.238847 0.197792
17651 6 0.291323 0.240977 0.226533
20170 7 0.239827 0.218827 0.22484
17504 3 0.372478 0.141679 0.249056
20091 5 0.295448 0.144449 0.188326
20367 9 0.267879 0.168074 0.248261
17617 7 0.28176 0.231003 0.230544
20094 5 0.298465 0.203926 0.189928
17582 7 0.294185 0.130738 0.244188
20127 3 0.269013 0.198877 0.246829
17571 3 0.36643 0.211603 0.244766
17549 7 0.284083 0.126707 0.217872
17531 1 0.326136 0.174417 0.191355
20090 5 0.253389 0.137595 0.190942
17551 1 0.33402 0.236485 0.192287
17538 5 0.357177 0.202548 0.19331
20164 5 0.258049 0.206925 0.193232
20368 9 0.256139 0.20239 0.241755
17543 5 0.357125 0.143401 0.195207
20085 2 0.275889 0.137493 0.195734
20086 8 0.265626 0.172098 0.21462
20087 2 0.28113 0.210452 0.198289
20159 4 0.28184 0.236295 0.20025
20088 5 0.27296 0.152323 0.205175
20093 4 0.276206 0.195243 0.207646
17547 7 0.316964 0.159306 0.216155
17540 3 0.340801 0.238617 0.210458
17579 6 0.326684 0.170493 0.213018
17546 7 0.340299 0.166601 0.215919
20136 6 0.280996 0.167042 0.228234
20413 7 0.279092 0.17903 0.234381
20402 7 0.278541 0.152024 0.232207
17534 8 0.370432 0.236225 0.213827
17580 7 0.338213 0.228797 0.241738
17545 6 0.327017 0.239937 0.243941
17815 9 0.367552 0.199345 0.239862
17814 9 0.368644 0.150967 0.242785
14997 7 0.377044 0.157845 0.224738
17854 9 0.32853 0.238733 0.217021
17827 9 0.37292 0.129745 0.212318
15026 6 0.372633 0.168104 0.229878
17861 7 0.376872 0.240079 0.235136
17618 7 0.302812 0.245005 0.231742
20123 3 0.271492 0.153062 0.248937
12407 7 0.479071 0.127789 0.221935
14905 7 0.394538 0.128474 0.240431
17467 3 0.383109 0.14361 0.211165
14992 6 0.420422 0.242566 0.243155
17461 2 0.380583 0.1497 0.198829
17536 5 0.379553 0.214673 0.205353
15030 7 0.433192 0.235285 0.23918
14947 3 0.46398 0.148732 0.244176
14979 1 0.429435 0.237786 0.190018
14910 3 0.480382 0.149503 0.21129
14957 7 0.433523 0.176161 0.239216
15275 9 0.471501 0.210246 0.21434
14909 2 0.478992 0.213497 0.198186
14908 2 0.479109 0.138758 0.199904
14996 7 0.385771 0.17098 0.234098
17537 4 0.384175 0.174601 0.19836
15274 9 0.487659 0.164158 0.21091
14920 7 0.418239 0.160684 0.214904
12353 7 0.49093 0.187121 0.242582
17850 7 0.39142 0.220444 0.22983
14958 7 0.425988 0.158463 0.245392
14921 7 0.441544 0.163789 0.214522
15262 9 0.478031 0.226567 0.242849
14919 6 0.420258 0.172852 0.243411
15261 9 0.475649 0.160317 0.244358
14956 6 0.428219 0.17045 0.212022
14952 3 0.474057 0.213105 0.246273
14912 5 0.456991 0.146309 0.195056
17584 6 0.385185 0.23671 0.227896
14991 5 0.457706 0.205629 0.193511
17468 5 0.397665 0.14051 0.191641
14915 3 0.483732 0.206707 0.210287
17533 2 0.380831 0.199127 0.196404
12408 7 0.47736 0.12667 0.234332
22796 7 0.107943 0.246045 0.212638
22920 9 0.166065 0.126007 0.247457
25472 9 0.0548681 0.065547 0.248114
25178 3 0.0278182 0.0630377 0.305451
25245 3 0.0284662 0.108361 0.303797
25251 5 0.0189547 0.0498396 0.286077
25246 4 0.034243 0.0845807 0.289401
25243 2 0.0344475 0.110084 0.291723
25224 1 0.0904041 0.0844062 0.288079
25179 5 0.0593016 0.0529897 0.290415
25173 2 0.0357792 0.060196 0.293225
25170 1 0.0836723 0.0233386 0.289136
25232 5 0.0816482 0.0830698 0.26797
25230 5 0.0808188 0.024927 0.26923
22671 1 0.113245 0.0541398 0.267269
25171 1 0.0153284 0.0533458 0.264463
25229 5 0.0392355 0.0231594 0.262906
25294 1 0.0123682 0.116524 0.263224
25306 5 0.0418084 0.0853443 0.263001
25226 2 0.0648603 0.0894603 0.258821
25225 2 0.0632009 0.0168218 0.261065
25496 9 0.0165965 0.0523687 0.3071
25288 6 0.0974623 0.0852323 0.307572
25497 9 0.0265375 0.0941598 0.306296
22619 1 0.11616 0.114859 0.264572
25300 4 0.0672008 0.115122 0.256158
25248 5 0.0587699 0.116609 0.290522
22699 5 0.119068 0.111395 0.285551
22624 5 0.120623 0.0520365 0.287402
25183 7 0.0977645 0.00255863 0.309577
25218 6 0.085209 0.0128646 0.309014
25257 7 0.110734 0.0946804 0.308826
1930 7 0.00652864 0.0157956 0.307412
25256 7 0.104304 0.0704461 0.306924
25247 5 0.0159744 0.119585 0.284929
22622 3 0.130301 0.0534884 0.306625
22623 4 0.140303 0.0198357 0.29564
22681 5 0.140168 0.0284257 0.2628
22620 2 0.137626 0.0452924 0.295538
19999 4 0.226698 0.0435355 0.301636
19993 2 0.236005 0.0593376 0.293202
20068 2 0.236074 0.109859 0.294493
20071 4 0.234088 0.085774 0.296268
22625 5 0.160473 0.055042 0.291465
22627 5 0.160361 0.113283 0.290696
22618 1 0.183967 0.0845334 0.288833
20076 5 0.220006 0.0569039 0.283733
22600 1 0.190171 0.0231875 0.288219
22609 5 0.182141 0.022963 0.2681
22678 5 0.182713 0.0898006 0.268588
19990 1 0.218327 0.0531437 0.264667
22677 5 0.142578 0.0836228 0.264322
20129 5 0.243174 0.0843776 0.262446
20053 5 0.241408 0.020441 0.260991
22602 2 0.165138 0.0306572 0.259874
22673 2 0.166803 0.0802571 0.260309
22676 4 0.170218 0.0551241 0.257867
19998 3 0.188217 0.0197874 0.306279
19992 8 0.218292 0.0207655 0.309581
20119 1 0.214624 0.116373 0.266893
20072 5 0.218261 0.115288 0.285911
22943 9 0.141693 0.0544151 0.311768
22626 3 0.132228 0.116508 0.305095
22621 2 0.136272 0.121953 0.292995
20391 9 0.230938 0.111431 0.311252
20070 3 0.231311 0.121681 0.305458
22608 3 0.166944 0.0126043 0.250992
20409 9 0.175506 0.0180238 0.311419
17427 4 0.361773 0.0154606 0.250188
20000 5 0.26004 0.0552476 0.29016
17448 5 0.359947 0.116805 0.287447
17440 8 0.328892 0.0837934 0.308475
17446 3 0.298327 0.0805968 0.306731
17442 5 0.334833 0.061541 0.300739
17447 4 0.333018 0.106073 0.300004
17443 4 0.338612 0.0220415 0.294422
17439 2 0.337877 0.0464368 0.290676
20048 1 0.28965 0.0870184 0.287349
19989 1 0.284471 0.0235808 0.287272
17445 5 0.359631 0.0546855 0.287027
17444 5 0.319184 0.0511785 0.282506
20057 5 0.282613 0.0828891 0.266561
17495 1 0.311823 0.0542238 0.264922
17506 5 0.341369 0.0204426 0.265207
20054 5 0.283307 0.0230899 0.266168
17438 1 0.315418 0.118933 0.263483
17501 5 0.339825 0.0903025 0.261882
17421 2 0.361357 0.0306022 0.259699
20050 2 0.264938 0.0925689 0.259085
20049 2 0.265922 0.0150524 0.258349
17497 2 0.359968 0.0805215 0.256533
20040 6 0.277419 0.014858 0.307734
17500 4 0.360202 0.0548861 0.257223
20073 5 0.259645 0.115112 0.290655
20124 4 0.264864 0.117672 0.259988
17524 5 0.318643 0.116948 0.282352
17441 2 0.336128 0.122684 0.291399
20004 7 0.265381 0.00723499 0.304364
22747 5 0.157338 0.21723 0.249946
17380 7 0.409331 0.00883992 0.308259
17502 5 0.380017 0.0883025 0.263223
17428 5 0.380964 0.0247843 0.267418
17437 1 0.383082 0.0862064 0.284754
14822 3 0.429113 0.0465706 0.302827
14891 4 0.438295 0.0856418 0.293958
14817 2 0.436098 0.06017 0.292648
14887 2 0.435205 0.109894 0.289408
14823 5 0.458131 0.051207 0.288556
17418 1 0.391241 0.0213498 0.286753
14893 5 0.458835 0.115862 0.285801
14897 5 0.418384 0.058487 0.283773
14892 5 0.417197 0.111778 0.280855
14866 1 0.488541 0.0851183 0.285697
14814 1 0.481841 0.0231864 0.285914
14873 5 0.479409 0.0189359 0.266328
14876 5 0.480881 0.0828163 0.265762
14815 1 0.414563 0.0545811 0.264257
14943 1 0.410414 0.115065 0.264123
14954 5 0.440764 0.088385 0.262815
17412 6 0.39668 0.0183039 0.307316
14869 2 0.463313 0.0899258 0.257633
14872 5 0.437076 0.0145617 0.263142
14867 2 0.460608 0.0130739 0.258968
14948 4 0.466991 0.114509 0.254303
14860 6 0.492811 0.0760726 0.306487
17379 7 0.404911 0.0323594 0.308101
15286 9 0.433678 0.0535065 0.309045
21939 7 0.125049 0.0117689 0.400851
25255 7 0.101729 0.165943 0.309283
25296 2 0.0633432 0.139238 0.258862
25241 1 0.0820055 0.147944 0.287176
25249 3 0.0228887 0.180076 0.300528
25360 6 0.0870565 0.212198 0.306713
25320 4 0.0322263 0.213054 0.28873
25317 2 0.0322592 0.238279 0.288675
25295 1 0.087124 0.211972 0.286472
25250 5 0.0568354 0.179478 0.288047
25244 2 0.0323298 0.188298 0.289084
25325 5 0.0174697 0.179667 0.279807
25302 5 0.0799049 0.144572 0.267925
25305 5 0.0817745 0.211352 0.26659
22742 1 0.109251 0.177972 0.265258
25301 5 0.0397081 0.140515 0.262739
25242 1 0.0169291 0.180556 0.262779
25376 5 0.0411199 0.210785 0.26323
25298 2 0.063433 0.218015 0.258511
25289 6 0.0882534 0.159031 0.307077
25366 1 0.00946384 0.243227 0.260159
25498 9 0.0237328 0.192677 0.305501
25371 4 0.0644395 0.242789 0.254442
22690 1 0.114702 0.240627 0.261885
22773 5 0.120036 0.244016 0.279219
25322 5 0.057009 0.244162 0.287409
22695 5 0.115362 0.181597 0.286423
25330 7 0.102687 0.216585 0.308711
25499 9 0.0305227 0.239849 0.30589
25321 5 0.0162926 0.245857 0.280409
25254 7 0.0782439 0.169158 0.309459
22697 3 0.123746 0.240192 0.298452
25319 3 0.0285493 0.250028 0.299655
22693 3 0.134659 0.171407 0.305142
22944 9 0.136477 0.12808 0.309564
22945 9 0.141858 0.184308 0.307818
22694 4 0.138458 0.147 0.290093
22691 2 0.136441 0.171796 0.292489
22748 4 0.164819 0.177174 0.255948
22674 2 0.165399 0.152265 0.258441
22754 5 0.141205 0.145243 0.261355
20202 5 0.240453 0.210051 0.261073
22672 1 0.188611 0.147867 0.287349
20142 4 0.238439 0.209762 0.292524
20147 5 0.21775 0.175189 0.286401
22696 5 0.158673 0.181567 0.289205
20074 3 0.231401 0.180356 0.304791
20069 2 0.236767 0.184945 0.293003
22689 1 0.183072 0.210893 0.287519
20392 9 0.23651 0.192697 0.309767
20139 2 0.237277 0.234834 0.291226
20067 1 0.215668 0.179439 0.265125
22680 5 0.183066 0.146952 0.266943
22750 5 0.180926 0.20697 0.267758
22749 5 0.139754 0.203799 0.264379
20125 5 0.242057 0.151658 0.263573
22744 2 0.162185 0.201811 0.259646
22737 6 0.188663 0.218688 0.307767
22736 6 0.197052 0.149741 0.308331
22698 5 0.157254 0.23856 0.286326
20190 1 0.210372 0.240659 0.263236
22703 7 0.197664 0.231353 0.307415
20143 5 0.218212 0.240823 0.283595
22704 7 0.207573 0.139191 0.310854
20393 9 0.237121 0.231694 0.308068
20141 3 0.232088 0.243284 0.303388
22705 7 0.206152 0.162561 0.30617
22963 7 0.137493 0.226478 0.310401
22692 2 0.135253 0.2496 0.288161
17572 4 0.366463 0.178761 0.258123
20126 5 0.280893 0.14983 0.268513
20075 5 0.25979 0.178254 0.290211
20066 1 0.285394 0.148035 0.28737
17516 2 0.33773 0.173278 0.293754
17518 3 0.33768 0.183556 0.305462
20114 6 0.300291 0.211716 0.307691
17519 4 0.335045 0.147777 0.293855
17521 5 0.360506 0.178909 0.288691
20120 1 0.289694 0.209281 0.286
17520 5 0.318528 0.182331 0.286495
17595 5 0.316092 0.236614 0.285524
17567 1 0.312448 0.178513 0.266371
20128 5 0.281008 0.205258 0.265875
17577 5 0.34315 0.150224 0.264502
17573 5 0.341517 0.20948 0.261277
17498 2 0.366423 0.154095 0.259679
20121 2 0.264265 0.142668 0.260009
17569 2 0.363641 0.203308 0.256651
20122 2 0.264721 0.212913 0.257497
20196 4 0.26896 0.237324 0.255892
20113 6 0.28696 0.158349 0.307104
17523 5 0.357485 0.237306 0.285679
17515 1 0.316731 0.240562 0.263028
17839 9 0.340071 0.171893 0.310393
17840 9 0.323376 0.233764 0.306107
20144 5 0.260377 0.242601 0.288537
17522 3 0.334949 0.244059 0.303822
17529 7 0.365586 0.204891 0.30621
17530 7 0.368539 0.228025 0.30415
20081 7 0.296724 0.170186 0.305479
20082 7 0.273779 0.167928 0.304975
20079 7 0.311879 0.200814 0.309468
17517 2 0.337051 0.245862 0.291194
20080 7 0.294274 0.215368 0.315053
17561 6 0.377536 0.215659 0.30564
16214 7 0.398131 0.167419 0.484068
14890 5 0.429827 0.125486 0.297933
15020 4 0.465663 0.243632 0.258222
17505 5 0.383598 0.148319 0.267907
17574 5 0.381293 0.211318 0.264712
17514 1 0.383368 0.209953 0.284796
14945 2 0.462502 0.139429 0.256234
14886 1 0.417604 0.179546 0.263164
14894 3 0.395225 0.144415 0.30751
14972 5 0.418768 0.180582 0.280172
14896 5 0.459369 0.177285 0.285063
14888 8 0.425277 0.147104 0.307478
12342 3 0.491236 0.215266 0.306069
14895 4 0.429658 0.167327 0.29747
14964 2 0.435645 0.233682 0.290239
14967 4 0.433275 0.208563 0.291792
14889 2 0.435609 0.1843 0.289076
17496 1 0.390924 0.146718 0.288312
14944 1 0.489671 0.213167 0.286423
14885 1 0.484837 0.147801 0.285242
14953 5 0.4818 0.209073 0.265389
14936 6 0.487535 0.141334 0.306489
14950 5 0.480029 0.147812 0.264548
15025 5 0.441308 0.210421 0.260933
14949 5 0.439224 0.147759 0.259543
14946 2 0.464324 0.218243 0.257977
15015 1 0.410819 0.241941 0.262275
14969 5 0.459187 0.237435 0.286848
14968 5 0.416592 0.244263 0.283802
14900 7 0.473136 0.144359 0.309914
15305 9 0.385119 0.140489 0.313981
12753 9 0.479534 0.211164 0.31175
1402 3 0.00263532 0.188702 0.426538
14966 3 0.434179 0.242988 0.302041
22266 9 0.114597 0.00326809 0.33614
24544 6 0.086098 0.0271273 0.33433
24654 7 0.102692 0.0980353 0.332721
24655 7 0.0892669 0.082014 0.325495
24614 6 0.092324 0.0849077 0.33326
24820 9 0.0204726 0.0561064 0.33443
24550 1 0.0864571 0.0870139 0.353884
24571 2 0.0315362 0.0603284 0.350122
24576 3 0.0240857 0.0470015 0.340445
24577 5 0.0561641 0.0564218 0.35298
24639 2 0.0320804 0.110816 0.350193
24643 4 0.028175 0.0857904 0.348405
24644 5 0.0160003 0.117581 0.358702
24645 5 0.0565925 0.117852 0.35224
24649 5 0.01699 0.0541362 0.359822
24568 1 0.0809912 0.0245812 0.35518
22022 5 0.114018 0.0583086 0.354825
22097 5 0.118825 0.120586 0.353443
24582 7 0.094779 0.0401202 0.332273
24581 7 0.0819542 0.0215825 0.326827
24819 9 0.0219778 0.0041136 0.33975
22267 9 0.12234 0.0693802 0.335737
22020 3 0.129179 0.055312 0.336128
24560 5 0.0822311 0.0892332 0.373767
22017 1 0.115332 0.118257 0.372496
22024 3 0.132501 0.111745 0.333816
22633 7 0.177848 0.04753 0.325052
22665 6 0.16684 0.0579439 0.322859
22634 7 0.154574 0.0558905 0.327447
22032 7 0.203451 0.0115079 0.332889
22021 4 0.13471 0.0242561 0.350785
20065 6 0.240598 0.0210829 0.321232
22631 7 0.177836 0.0817143 0.328226
22632 7 0.164561 0.0994453 0.334315
19714 9 0.23027 0.0740684 0.3333
22666 6 0.180168 0.0942792 0.333451
19468 3 0.231084 0.114181 0.335863
19398 3 0.231322 0.059069 0.335991
19466 2 0.236272 0.109985 0.3482
19469 4 0.233745 0.0848572 0.350348
19393 2 0.235617 0.0600354 0.348532
19474 5 0.215803 0.0520715 0.355164
22016 1 0.18335 0.0873309 0.353244
22018 2 0.133886 0.0491231 0.34844
22023 5 0.156214 0.0594085 0.351502
22025 5 0.15768 0.120241 0.349562
21925 1 0.185871 0.0227255 0.355056
21991 6 0.194697 0.0249407 0.334917
22031 7 0.206136 0.0351096 0.33783
20416 7 0.23654 0.0322055 0.327204
19470 5 0.217866 0.120912 0.355432
20415 7 0.243349 0.00503244 0.32478
19715 9 0.241571 0.125065 0.33323
22019 2 0.135361 0.125188 0.344303
22268 9 0.139685 0.118856 0.328128
22005 5 0.180119 0.0878392 0.373262
17857 9 0.287539 0.0845013 0.313
20005 7 0.269026 0.0239798 0.312532
17455 7 0.33408 0.0230808 0.316031
17454 7 0.309853 0.0179354 0.315404