ITEM: TIMESTEP
702000
ITEM: NUMBER OF ATOMS
25520
ITEM: BOX BOUNDS pp pp pp
-3.8586453365292250e-01 6.0084408123655081e+01
-1.9414754620404808e+00 5.9111760736039116e+01
-1.2638050322386283e+01 1.1191378272839901e+02
ITEM: ATOMS id type xs ys zs
25182 6 0.0818696 0.0186734 0.153018
25252 6 0.0957699 0.0771713 0.152613
25214 3 0.0360885 0.0472277 0.158967
25287 5 0.0285342 0.0534124 0.178583
25283 5 0.0685377 0.116964 0.173008
25282 5 0.0276771 0.11408 0.180167
25281 4 0.0428462 0.0851302 0.166929
25277 2 0.0444764 0.109836 0.170536
25215 5 0.0676965 0.0538768 0.171214
25209 2 0.0438457 0.0594513 0.168956
25188 1 0.0992872 0.0837121 0.173446
25458 9 0.04695 0.0394222 0.155334
25206 1 0.0938023 0.0236265 0.173848
25293 7 0.0888328 0.0632476 0.150633
25219 7 0.0844206 0.0131668 0.145883
25292 7 0.110679 0.0734395 0.150195
25220 7 0.0698405 0.0100589 0.155374
25363 7 0.0123188 0.0741103 0.157052
22735 5 0.126744 0.114896 0.17332
22660 5 0.130846 0.0546765 0.174969
22905 9 0.142038 0.0742137 0.156639
22662 3 0.146245 0.105249 0.156047
22658 3 0.139607 0.0575892 0.155713
22656 2 0.146265 0.0462368 0.166733
20112 5 0.229102 0.0513359 0.173521
22663 5 0.169774 0.116017 0.169191
22654 1 0.194247 0.0832809 0.171894
22661 5 0.169976 0.0515868 0.169938
22659 4 0.142423 0.0211495 0.167129
22563 1 0.20113 0.0214988 0.172881
22629 6 0.202613 0.0205612 0.151377
22630 6 0.19234 0.0823207 0.151268
22667 7 0.179937 0.0922377 0.150805
22668 7 0.184278 0.0678612 0.151463
20108 5 0.227827 0.117227 0.172177
20106 3 0.244233 0.122981 0.154166
22670 7 0.191288 0.0246414 0.146698
22669 7 0.21522 0.0299189 0.149678
20031 2 0.247426 0.0607477 0.16571
20036 3 0.244075 0.0459274 0.154984
20104 2 0.246812 0.110867 0.164973
20107 4 0.245505 0.0859368 0.163089
20352 9 0.243903 0.0568631 0.149078
22518 7 0.221256 0.0799913 0.142909
22482 6 0.236548 0.0796137 0.141892
22517 7 0.242195 0.0905279 0.146845
22657 2 0.146444 0.121366 0.165892
20351 9 0.244448 0.00663724 0.156441
20118 7 0.297862 0.0925073 0.145323
20117 7 0.320249 0.0946188 0.150096
20077 6 0.305364 0.0871796 0.151454
17480 3 0.34599 0.0500454 0.15437
17799 9 0.333667 0.0597331 0.152856
17478 2 0.348281 0.0445574 0.166477
20109 5 0.269541 0.118135 0.168497
17482 5 0.328212 0.0551243 0.172035
20037 5 0.269137 0.0548308 0.170756
20011 1 0.298995 0.0844975 0.17183
20028 1 0.294726 0.0215184 0.172271
17481 4 0.343991 0.0197668 0.167974
17484 3 0.343642 0.114575 0.154685
20003 6 0.286739 0.0230316 0.151827
20042 7 0.273916 0.0335961 0.151357
17560 5 0.326644 0.114126 0.172726
17483 5 0.370318 0.0522952 0.170873
17485 5 0.370832 0.113473 0.17059
17479 2 0.347738 0.121157 0.166967
17800 9 0.343587 0.128054 0.150548
20041 7 0.2774 0.0103073 0.15087
17489 7 0.380278 0.0895645 0.15021
14848 1 0.496407 0.0196084 0.174457
17490 7 0.403975 0.0859589 0.144689
17451 6 0.396327 0.0863162 0.151852
14856 3 0.443073 0.0495694 0.15632
15246 9 0.455506 0.0418085 0.153361
14929 4 0.446194 0.0822296 0.168731
14926 2 0.450203 0.107372 0.168838
14851 2 0.448618 0.0571527 0.168284
14931 5 0.472866 0.112108 0.173116
14857 5 0.472167 0.0511092 0.171399
17476 1 0.397385 0.0831563 0.172246
14934 5 0.430772 0.0484052 0.17563
14930 5 0.432758 0.117359 0.17597
17384 1 0.399492 0.0211348 0.174436
17450 6 0.395481 0.0317934 0.15452
15247 9 0.441228 0.109375 0.152738
14928 3 0.446186 0.120497 0.157699
20056 3 0.258791 0.08738 0.24919
17491 7 0.404906 0.0433509 0.152133
17492 7 0.381194 0.0384368 0.152561
25280 5 0.0366564 0.125503 0.161894
25291 7 0.087466 0.170846 0.151349
25290 7 0.113228 0.16822 0.154466
2033 7 0.0327759 0.133276 0.134606
25253 6 0.0988393 0.159896 0.15416
2032 7 0.0454379 0.156923 0.13499
1995 6 0.0320551 0.148859 0.138195
25275 1 0.0909252 0.148812 0.172971
25278 8 0.0262127 0.146376 0.153635
22957 9 0.0866722 0.231153 0.154661
22732 3 0.0951705 0.216292 0.15474
25285 4 0.0371596 0.168742 0.161582
25359 5 0.0260969 0.181228 0.179589
25356 5 0.0662688 0.242195 0.173671
25354 4 0.0435343 0.210032 0.167455
25351 2 0.0436229 0.235162 0.17005
25286 5 0.067125 0.178395 0.173988
25279 2 0.0434087 0.184261 0.171081
25259 1 0.0992505 0.212264 0.173402
25355 5 0.0255956 0.242557 0.177948
25394 6 0.0686435 0.182366 0.143894
25432 7 0.0594121 0.182143 0.150027
25433 7 0.0754149 0.197035 0.144261
25459 9 0.0458033 0.251859 0.155467
2103 7 0.00964519 0.221249 0.155511
14913 5 0.490681 0.149409 0.193404
9777 7 0.445879 0.239148 0.22886
22906 9 0.137377 0.112669 0.150559
1963 7 0.130141 0.220084 0.132515
20353 9 0.244154 0.138031 0.154107
22730 5 0.126541 0.173229 0.177208
1962 7 0.140104 0.195899 0.133862
22726 8 0.125347 0.212069 0.152362
22740 7 0.213934 0.161558 0.150834
22741 7 0.191801 0.17366 0.151292
1927 6 0.139194 0.209871 0.138194
22700 6 0.198471 0.159046 0.152559
22636 1 0.197861 0.147787 0.172168
22729 4 0.144917 0.1469 0.163519
22733 4 0.13387 0.232784 0.161895
20189 7 0.175621 0.209202 0.147922
20148 6 0.189137 0.205856 0.1521
22728 5 0.132921 0.187974 0.159853
22725 2 0.143291 0.171339 0.168345
20178 5 0.227405 0.239391 0.177552
20183 5 0.227412 0.177464 0.172584
22723 1 0.193873 0.20982 0.173323
22731 5 0.166752 0.179563 0.170893
22807 5 0.127146 0.243695 0.179727
20188 7 0.199464 0.202617 0.146813
22734 5 0.168108 0.240672 0.173739
20177 4 0.241604 0.211544 0.163505
20110 3 0.243599 0.1721 0.154496
20105 2 0.244993 0.185396 0.165089
20173 2 0.243798 0.235081 0.167619
20354 9 0.244764 0.181887 0.148242
22727 2 0.144004 0.247625 0.170879
17555 4 0.344571 0.146079 0.166104
20102 1 0.29518 0.147051 0.170832
17554 3 0.350364 0.178967 0.153303
17801 9 0.338496 0.170944 0.149142
17558 3 0.336937 0.236601 0.156138
17552 2 0.347968 0.170815 0.165456
17556 5 0.327434 0.180573 0.17068
20111 5 0.269363 0.180281 0.168553
20084 1 0.301384 0.209024 0.172362
20179 5 0.268657 0.238796 0.16995
17631 5 0.330464 0.24114 0.175479
17559 5 0.369562 0.240222 0.168652
17557 5 0.368459 0.179581 0.171198
17802 9 0.349005 0.231669 0.15136
17553 2 0.346169 0.248249 0.166149
14940 7 0.48669 0.141444 0.145777
17563 7 0.376108 0.215465 0.152498
17566 7 0.397148 0.14341 0.146036
14924 1 0.496471 0.144652 0.173327
17565 7 0.416864 0.134628 0.151097
17564 7 0.37712 0.190509 0.150948
14938 7 0.414664 0.207781 0.141493
14937 7 0.436552 0.196967 0.146222
17525 6 0.403929 0.142623 0.152781
17459 1 0.397743 0.146526 0.173285
17526 6 0.386628 0.203489 0.151186
14899 6 0.43002 0.208008 0.140863
15248 9 0.435022 0.158732 0.154953
15002 3 0.443926 0.238423 0.153795
14932 3 0.44485 0.172744 0.154973
15000 2 0.447279 0.2322 0.165985
15003 4 0.447837 0.207059 0.166691
14927 2 0.447443 0.180851 0.166285
15005 5 0.470471 0.238549 0.169752
14933 5 0.470271 0.174225 0.170089
15004 5 0.427308 0.238906 0.172738
17550 1 0.394044 0.209137 0.171211
15008 5 0.429019 0.174391 0.173692
15249 9 0.443201 0.224609 0.149603
14898 6 0.491073 0.147431 0.152699
14939 7 0.479613 0.158104 0.154208
14907 1 0.500019 0.206153 0.173079
25236 7 0.0151816 0.0302872 0.243833
25471 9 0.0602235 0.00412634 0.246699
25198 5 0.0923951 0.0840504 0.193089
25195 5 0.0930729 0.0226823 0.193684
25268 5 0.0528648 0.0810918 0.198781
25258 1 0.0238091 0.115991 0.19762
25207 1 0.0294626 0.0528276 0.199429
25191 2 0.0751239 0.0902731 0.20102
25263 4 0.0743026 0.115732 0.202371
25197 4 0.079409 0.0783388 0.211453
25192 5 0.0781079 0.0311389 0.210998
25196 3 0.0384877 0.0557731 0.218657
25190 8 0.0695105 0.0548546 0.218799
25510 9 0.030224 0.0579758 0.225718
25517 7 0.0642324 0.0537357 0.239576
25240 6 0.0747013 0.0466175 0.233735
22685 7 0.0825976 0.100239 0.220728
25506 7 0.0725812 0.0292905 0.235471
22649 6 0.0861712 0.111996 0.22563
25194 5 0.0517063 0.0180319 0.198807
25189 2 0.076039 0.0163492 0.201904
25308 6 0.019688 0.114503 0.217937
25472 9 0.0533287 0.0969501 0.244517
25272 7 0.0302888 0.112516 0.224206
22684 7 0.0728155 0.115053 0.229421
22635 1 0.122446 0.0533314 0.195225
22958 9 0.116513 0.118101 0.218434
25309 7 0.0289904 0.121412 0.240449
25270 6 0.0445073 0.120156 0.237921
25271 7 0.00590244 0.107347 0.220465
25205 7 0.00830899 0.00681106 0.222098
22760 7 0.105569 0.126 0.240607
22717 6 0.112184 0.1244 0.247656
25231 3 0.0569491 0.0840847 0.249609
25201 6 0.00818881 0.0442411 0.243208
12328 7 0.423913 0.137224 0.227734
12371 7 0.500479 0.128069 0.218213
22650 7 0.133698 0.0522443 0.222649
22683 6 0.131687 0.0460578 0.215433
22651 7 0.143699 0.0352525 0.215296
22648 6 0.103469 0.0723239 0.250122
22655 1 0.125044 0.116717 0.194323
22931 9 0.191321 0.0119212 0.213981
20062 7 0.14313 0.0559969 0.246341
22918 9 0.154523 0.0269607 0.248664
22644 3 0.130847 0.117142 0.213479
20096 6 0.194881 0.0667757 0.246668
22643 5 0.193723 0.0874295 0.193284
20023 6 0.144508 0.0470425 0.239763
20134 7 0.190196 0.0587531 0.24012
20061 7 0.157 0.0522979 0.235793
22572 5 0.193608 0.0187534 0.194657
20083 1 0.220843 0.115969 0.192676
20029 1 0.225325 0.0553572 0.194758
22642 5 0.151315 0.0867234 0.195227
20063 7 0.179951 0.0466766 0.221604
22637 2 0.173259 0.0792964 0.200395
22641 4 0.174609 0.0532726 0.200494
22565 2 0.175155 0.0284092 0.20161
22640 5 0.173129 0.0916176 0.211037
20060 6 0.224049 0.0663497 0.21454
20022 6 0.178957 0.0587166 0.227197
20064 7 0.178897 0.0728264 0.223336
22647 5 0.153385 0.0194965 0.197027
22571 3 0.179028 0.0216079 0.213716
22638 8 0.159451 0.114875 0.217534
20025 7 0.236413 0.0740107 0.21205
22688 6 0.171244 0.118664 0.23205
20024 7 0.214952 0.0771788 0.217966
20130 6 0.219073 0.0967064 0.233394
17471 6 0.222956 0.0220601 0.232159
17510 7 0.238118 0.0300147 0.230296
17509 7 0.212948 0.0325881 0.22954
20100 7 0.226104 0.0936606 0.23998
20101 7 0.208503 0.0862121 0.233377
20098 7 0.222325 0.110311 0.219991
20133 7 0.206021 0.124456 0.24122
20131 6 0.219072 0.114633 0.21246
20099 7 0.20248 0.112584 0.211589
22954 7 0.168404 0.109587 0.23845
20365 9 0.239183 0.0285891 0.245116
22576 7 0.146176 0.0116511 0.23642
20095 5 0.251786 0.0827809 0.195035
15262 9 0.460043 0.223391 0.243778
17549 7 0.24654 0.111686 0.228444
20016 5 0.249887 0.0249578 0.19685
20187 7 0.286157 0.244892 0.158286
20366 9 0.255517 0.0989717 0.243845
17456 7 0.28034 0.0668388 0.245701
20020 5 0.291866 0.0800387 0.192576
20017 5 0.290702 0.0208865 0.192378
17477 1 0.324307 0.116274 0.195448
17458 1 0.322345 0.0522824 0.192873
17464 5 0.34898 0.0872815 0.195978
20013 2 0.273987 0.0886298 0.200105
20379 9 0.272606 0.0661772 0.212924
20089 4 0.275644 0.11414 0.199995
20019 3 0.276278 0.0809451 0.212247
20378 9 0.289642 0.0213479 0.215339
17466 6 0.319896 0.0544387 0.212348
17493 7 0.314658 0.06966 0.211568
17494 7 0.305774 0.0478224 0.214707
14960 7 0.328015 0.0709813 0.226795
14918 6 0.325248 0.0818187 0.232164
14959 7 0.312847 0.0752731 0.235748
17469 5 0.353908 0.02357 0.197236
20014 3 0.28001 0.0311576 0.21085
20012 2 0.272784 0.0166765 0.200757
17503 6 0.289561 0.0532783 0.245282
17499 3 0.357604 0.0834223 0.246872
17457 7 0.279404 0.0408927 0.24387
17813 9 0.344143 0.0824262 0.242105
17473 7 0.323178 0.105919 0.222985
17472 7 0.302024 0.103564 0.215012
14846 7 0.366032 0.063889 0.233757
17460 2 0.371869 0.080196 0.19965
17386 2 0.375471 0.0305695 0.202104
17578 6 0.261879 0.113459 0.230982
17548 7 0.269465 0.103892 0.226195
17582 7 0.312622 0.114856 0.239127
17583 7 0.288901 0.11776 0.240949
17544 6 0.302244 0.122988 0.243838
17463 4 0.376659 0.0552101 0.200788
17508 6 0.31529 0.111997 0.216531
20051 3 0.254053 0.025736 0.248607
14847 7 0.374814 0.0711404 0.223009
17826 9 0.380944 0.105146 0.210545
17825 9 0.376881 0.0385018 0.218595
14878 6 0.377285 0.0618146 0.229353
14985 4 0.476847 0.239476 0.202836
17462 3 0.374528 0.0904704 0.211077
14881 7 0.410154 0.0197588 0.245688
14880 7 0.385081 0.0129467 0.249682
17391 3 0.375634 0.0246751 0.214344
15272 9 0.479453 0.00813515 0.219672
14840 5 0.491644 0.0803249 0.196074
17465 5 0.391154 0.0863388 0.192318
14906 1 0.423688 0.114478 0.193935
17392 5 0.3919 0.0194246 0.195141
14849 1 0.425344 0.0536709 0.196286
14917 5 0.451818 0.0809151 0.198823
14837 5 0.451981 0.0229882 0.199973
14911 4 0.474294 0.115828 0.201753
14834 2 0.473726 0.0903218 0.203443
14839 3 0.478344 0.0842708 0.215164
14955 6 0.418572 0.053908 0.215906
15273 9 0.476699 0.0981244 0.219569
14922 7 0.404215 0.0537469 0.219728
14923 7 0.430632 0.0505353 0.220691
15308 7 0.462033 0.0668437 0.227334
14884 6 0.45434 0.0517624 0.229846
15297 7 0.466098 0.0398333 0.227269
15303 9 0.398904 0.0573021 0.243211
14868 8 0.442466 0.0519084 0.244151
14835 3 0.48204 0.020684 0.21473
14874 3 0.412236 0.0516993 0.248055
14833 2 0.47498 0.0144759 0.203268
14838 5 0.49227 0.021343 0.19524
14941 7 0.409489 0.102154 0.218969
12366 6 0.471775 0.118905 0.228981
14905 7 0.380796 0.102765 0.242673
14951 6 0.391938 0.116062 0.244111
14914 6 0.415236 0.114479 0.214399
14843 6 0.400749 0.0069836 0.248312
12751 9 0.498598 0.113682 0.242462
14844 7 0.402252 0.00559576 0.216522
20135 7 0.183082 0.0776854 0.247012
25345 7 0.00406847 0.231538 0.218777
12352 7 0.480077 0.171042 0.245392
25512 9 0.00686981 0.163645 0.242333
25348 7 0.00328643 0.170501 0.221213
22759 7 0.123299 0.13545 0.248662
22960 9 0.0985046 0.245995 0.239051
25347 7 0.028664 0.166179 0.224263
25310 7 0.0524334 0.12811 0.243674
25484 9 0.0846489 0.132247 0.218442
25267 5 0.0911342 0.20813 0.193665
25265 5 0.0913707 0.147685 0.194179
25303 3 0.0181581 0.172712 0.246249
25260 2 0.0749068 0.141205 0.202933
25264 5 0.0516388 0.14887 0.200801
25332 1 0.0185401 0.243343 0.198545
25276 1 0.0253666 0.180328 0.199405
25342 5 0.0500762 0.210415 0.199273
25337 4 0.0756088 0.242277 0.204367
25261 2 0.0741695 0.216782 0.201922
25266 3 0.0764197 0.203668 0.212906
25262 3 0.0862325 0.145613 0.213628
25485 9 0.0869405 0.191947 0.211737
22720 7 0.110991 0.164495 0.215824
25377 6 0.0190945 0.175149 0.219423
25507 7 0.0634369 0.190673 0.225069
25518 7 0.0624078 0.162369 0.225262
25314 6 0.0587432 0.176671 0.229848
25297 8 0.0493109 0.17653 0.244065
22751 3 0.109278 0.24176 0.24482
22758 7 0.107984 0.183097 0.240663
22718 6 0.100849 0.177996 0.247258
22830 7 0.0493951 0.23722 0.228433
22757 7 0.1027 0.16218 0.24577
22756 6 0.123372 0.174246 0.213308
22706 1 0.12113 0.178463 0.193573
22791 6 0.0627181 0.241157 0.232501
25378 6 0.0136638 0.243717 0.219436
22829 7 0.0607789 0.234122 0.239583
22795 7 0.113929 0.223519 0.217229
22825 6 0.119301 0.238008 0.216729
22796 7 0.105238 0.245157 0.217137
9776 7 0.462335 0.221936 0.225456
22965 7 0.170812 0.134549 0.235236
22955 7 0.157303 0.246403 0.223831
22719 7 0.132238 0.177302 0.219495
22724 1 0.124382 0.241207 0.196347
20167 7 0.198466 0.227577 0.213631
22646 5 0.191706 0.143346 0.19256
22713 5 0.190628 0.210481 0.194676
20103 1 0.223949 0.177278 0.193839
22716 5 0.151111 0.143985 0.193889
20154 1 0.219534 0.238849 0.195321
22722 7 0.145173 0.162793 0.239143
22645 4 0.167571 0.137794 0.209218
22712 5 0.148363 0.209731 0.197546
22639 2 0.172659 0.151421 0.19957
22708 2 0.171076 0.201827 0.201226
22711 4 0.172714 0.17722 0.199578
22710 3 0.176736 0.206856 0.213301
22932 9 0.179153 0.192409 0.217327
20204 6 0.211456 0.23632 0.214986
20092 3 0.229283 0.172694 0.212638
22721 7 0.149145 0.186156 0.240913
20406 9 0.216348 0.176081 0.21735
22745 8 0.140775 0.241315 0.242812
20166 6 0.184179 0.16963 0.224735
20206 7 0.170866 0.17198 0.229127
22755 6 0.143622 0.176548 0.235561
20205 7 0.180471 0.156021 0.221044
22762 6 0.161222 0.236829 0.23096
20203 6 0.206645 0.185967 0.245625
22966 7 0.162556 0.22109 0.227549
20170 7 0.201685 0.181707 0.238648
20169 7 0.219926 0.192947 0.244521
20132 7 0.216834 0.139497 0.249975
20097 6 0.203367 0.129931 0.248752
20208 7 0.209811 0.245335 0.238748
12406 7 0.492137 0.235135 0.240858
20090 5 0.249933 0.140944 0.194257
17580 7 0.287923 0.247558 0.239903
20164 5 0.251174 0.203599 0.194717
20123 3 0.247905 0.147576 0.246971
20367 9 0.252282 0.134235 0.243169
17815 9 0.35357 0.236776 0.248228
17571 3 0.354952 0.221089 0.246747
17504 3 0.357595 0.148588 0.24713
17617 7 0.269486 0.216406 0.224697
17651 6 0.266677 0.229819 0.228639
20368 9 0.257409 0.217567 0.241133
20091 5 0.290193 0.14694 0.190276
20094 5 0.292319 0.206598 0.192929
17531 1 0.320039 0.179046 0.19317
17551 1 0.324803 0.238232 0.194819
17538 5 0.351332 0.201734 0.192789
17543 5 0.349437 0.14447 0.196171
20085 2 0.273025 0.138661 0.197921
20086 8 0.259682 0.173147 0.216334
20087 2 0.272337 0.212534 0.19999
20159 4 0.272052 0.236974 0.203508
20088 5 0.270399 0.154504 0.207406
20093 4 0.269288 0.197744 0.210261
17547 7 0.306573 0.174872 0.217881
17540 3 0.331635 0.24323 0.212963
17579 6 0.320113 0.178006 0.214192
17546 7 0.331806 0.174766 0.219674
20136 6 0.26891 0.173991 0.23116
20413 7 0.258569 0.182798 0.236703
20402 7 0.270474 0.159694 0.236031
17534 8 0.362382 0.24123 0.215048
14996 7 0.354459 0.194362 0.234273
17814 9 0.356881 0.159491 0.241458
20127 3 0.253127 0.207301 0.247117
15026 6 0.358826 0.183244 0.229802
14997 7 0.363419 0.190483 0.222846
17461 2 0.373305 0.151876 0.200555
17536 5 0.369316 0.216741 0.207805
17533 2 0.373706 0.201671 0.198439
17618 7 0.266176 0.240667 0.223027
14916 5 0.493806 0.205232 0.193909
17827 9 0.373948 0.152183 0.217034
17537 4 0.374153 0.177925 0.202541
14921 7 0.444373 0.163646 0.21205
14991 5 0.450871 0.20838 0.196019
14958 7 0.390184 0.17912 0.236619
14956 6 0.433726 0.175411 0.214805
14910 3 0.477815 0.151156 0.212398
15274 9 0.493135 0.154011 0.213412
14947 3 0.461464 0.150401 0.249684
14920 7 0.432993 0.171638 0.222641
12353 7 0.485483 0.195843 0.242721
14925 1 0.425835 0.177484 0.194358
14942 7 0.403023 0.124711 0.214929
17468 5 0.389625 0.143644 0.192149
14919 6 0.403761 0.181401 0.241714
12329 7 0.420667 0.137774 0.239898
14915 3 0.472979 0.202807 0.212821
17850 7 0.372857 0.228039 0.234879
14912 5 0.450974 0.148597 0.197654
17584 6 0.378068 0.239782 0.228553
12408 7 0.466386 0.128482 0.234632
9739 6 0.460558 0.23387 0.230983
12399 6 0.492199 0.182256 0.246447
17467 3 0.37691 0.140874 0.211493
15261 9 0.449901 0.149117 0.244683
14908 2 0.473405 0.140953 0.200948
14904 7 0.383194 0.129254 0.244263
15275 9 0.464896 0.189396 0.212629
12407 7 0.466994 0.127677 0.223258
14909 2 0.473537 0.213949 0.201438
12291 6 0.428368 0.145252 0.234053
14957 7 0.4153 0.172569 0.238024
14979 1 0.42144 0.240431 0.192475
17539 5 0.391986 0.210256 0.191503
25353 3 0.0353463 0.242995 0.159001
20186 7 0.310652 0.252903 0.153842
14995 7 0.412942 0.248248 0.219007
25203 7 0.0787652 0.00258906 0.226335
20046 7 0.218616 0.000843902 0.223134
25227 3 0.06114 0.0190183 0.249864
22687 7 0.112701 0.0814246 0.246209
22919 9 0.141762 0.0995125 0.249466
20009 7 0.188225 0.0049508 0.24835
17427 4 0.354606 0.0182245 0.249433
22920 9 0.172708 0.136083 0.25128
14952 3 0.462434 0.212169 0.249624
22686 7 0.0890309 0.0797204 0.248224
25178 3 0.0178717 0.0572477 0.305542
25245 3 0.0224918 0.108022 0.306748
25251 5 0.00479692 0.0504549 0.286476
25246 4 0.0227397 0.0851077 0.290822
25243 2 0.0244914 0.110182 0.294093
25224 1 0.0780213 0.086329 0.290119
25179 5 0.0475352 0.0528737 0.291856
25173 2 0.0235707 0.0602538 0.293549
25170 1 0.0724825 0.0220005 0.291073
25232 5 0.0715244 0.0839798 0.267832
25230 5 0.0719057 0.0286836 0.268933
22671 1 0.0985193 0.0573692 0.269148
25171 1 0.005169 0.0546551 0.263695
25229 5 0.0321653 0.0274962 0.263352
25306 5 0.028627 0.0846887 0.263305
25226 2 0.0522981 0.0912758 0.261338
25225 2 0.0551011 0.0179731 0.262085
25496 9 0.00325537 0.0503086 0.306288
25288 6 0.0831347 0.092743 0.31041
22619 1 0.104241 0.120304 0.268397
25300 4 0.0555199 0.116321 0.261227
25248 5 0.0477423 0.117747 0.291256
22699 5 0.107162 0.115629 0.289157
22624 5 0.105966 0.0574429 0.290317
25247 5 0.00685382 0.121747 0.287663
22622 3 0.118527 0.0606805 0.309496
22944 9 0.112067 0.115207 0.309097
25218 6 0.0679204 0.032735 0.311121
14207 7 0.428077 0.010552 0.393584
22626 3 0.12626 0.120725 0.307671
11769 7 0.497854 0.090868 0.419644
25497 9 0.0173834 0.0923069 0.308226
14241 6 0.415012 0.00330075 0.396651
22623 4 0.121902 0.0228561 0.301092
22620 2 0.123717 0.049234 0.29822
14670 7 0.493313 0.0397643 0.404917
25257 7 0.0937272 0.082842 0.313682
16837 7 0.309184 0.00154951 0.406137
22621 2 0.126703 0.126208 0.295089
22675 3 0.152338 0.0880132 0.250784
22681 5 0.128849 0.0234747 0.267976
19999 4 0.216437 0.0459185 0.302325
19993 2 0.224684 0.0624884 0.294372
20068 2 0.225646 0.112305 0.295981
20071 4 0.223796 0.0867995 0.297704
22625 5 0.147091 0.0560043 0.294608
22627 5 0.148566 0.115992 0.291755
22618 1 0.172037 0.0848471 0.290123
20076 5 0.208826 0.0594961 0.284886
22600 1 0.180269 0.0272124 0.292442
22609 5 0.170585 0.0298395 0.273928
22678 5 0.170692 0.0888749 0.269639
19990 1 0.205302 0.0577096 0.266308
22677 5 0.129074 0.0901895 0.267297
20129 5 0.230589 0.0874367 0.263407
20053 5 0.22741 0.0255007 0.263983
22602 2 0.152412 0.0312202 0.26558
22673 2 0.150777 0.0805801 0.262779
22676 4 0.150818 0.05534 0.262772
20119 1 0.201804 0.119104 0.268546
22608 3 0.16161 0.0202387 0.25524
20072 5 0.206934 0.119043 0.288026
19994 5 0.219258 0.00301726 0.30404
19992 8 0.212251 0.0252791 0.312255
22665 6 0.162184 0.0872059 0.309946
22633 7 0.147407 0.0782345 0.310224
20073 5 0.248896 0.119931 0.29221
20070 3 0.224692 0.121239 0.308504
20000 5 0.247987 0.0551687 0.291119
19407 7 0.213691 0.00157163 0.404439
22634 7 0.155574 0.10148 0.308682
24819 9 0.0333275 0.00387753 0.337858
17440 8 0.309337 0.0860666 0.308429
17446 3 0.279184 0.0900973 0.306593
17442 5 0.314489 0.0638165 0.299507
17447 4 0.316129 0.108531 0.299606
17443 4 0.327107 0.0247951 0.294025
17439 2 0.323631 0.0489816 0.291079
20048 1 0.279203 0.0871128 0.287318
19989 1 0.271159 0.0249062 0.288455
17445 5 0.345192 0.0581113 0.287255
17444 5 0.305838 0.0507656 0.282468
20057 5 0.271652 0.0870848 0.268357
17495 1 0.299291 0.0519577 0.265122
17506 5 0.330255 0.019474 0.264758
20054 5 0.270838 0.0276289 0.267017
17438 1 0.304913 0.12053 0.264908
17501 5 0.327749 0.0884613 0.26106
17421 2 0.352225 0.0287347 0.260839
20050 2 0.253822 0.0953715 0.260733
20049 2 0.251087 0.0186261 0.26025
17497 2 0.349854 0.0783852 0.258609
20040 6 0.280641 0.0204211 0.308733
17500 4 0.348686 0.0540358 0.260682
20124 4 0.253221 0.120391 0.261005
17428 5 0.370399 0.0250436 0.269521
17448 5 0.346439 0.118712 0.288613
17502 5 0.368183 0.0847547 0.266417
24691 7 0.123786 0.24377 0.494543
1291 7 -0.000530585 0.143958 0.477756
17437 1 0.369886 0.0870407 0.286222
14607 9 0.422348 0.00514387 0.337083
20004 7 0.26959 0.0191244 0.314523
17524 5 0.307228 0.121563 0.281936
17838 9 0.327893 0.00418227 0.312453
17441 2 0.323099 0.124718 0.291175
20005 7 0.294665 0.0153037 0.310481
14875 4 0.452196 0.0751956 0.251753
14822 3 0.415633 0.0534623 0.305867
14891 4 0.420888 0.0891469 0.29601
14817 2 0.421864 0.0632948 0.294859
14887 2 0.423691 0.112484 0.291369
14823 5 0.446757 0.056016 0.292806
17418 1 0.376299 0.0245806 0.288315
14893 5 0.447793 0.119066 0.289287
14897 5 0.406437 0.0564379 0.285995
14892 5 0.404389 0.114968 0.283115
14866 1 0.477698 0.0866444 0.289226
14814 1 0.471972 0.0245936 0.290876
14873 5 0.471768 0.024276 0.270095
14876 5 0.472193 0.0825758 0.268368
14815 1 0.405106 0.0534636 0.266199
14943 1 0.398318 0.116549 0.264604
14954 5 0.431005 0.0826559 0.266158
17412 6 0.383592 0.0203421 0.30862
14869 2 0.452619 0.0903096 0.261608
14872 5 0.43167 0.0214728 0.26764
14867 2 0.453754 0.0168974 0.262395
14948 4 0.452564 0.11601 0.259694
14860 6 0.485083 0.0864939 0.31073
17379 7 0.394201 0.0326236 0.308354
14870 5 0.449819 0.0320401 0.253056
17380 7 0.39291 0.0085439 0.31012
14828 7 0.493441 0.100332 0.310445
14890 5 0.416168 0.129015 0.299481
16214 7 0.41159 0.193156 0.494132
25299 5 0.0547343 0.155899 0.253227
25296 2 0.0545913 0.141568 0.262922
25241 1 0.0706842 0.150327 0.289138
25249 3 0.0204661 0.17981 0.304698
25360 6 0.0781979 0.214716 0.30861
25320 4 0.0211988 0.215307 0.293578
25317 2 0.0235153 0.240587 0.29262
25295 1 0.0781528 0.214677 0.287931
25250 5 0.0480733 0.186032 0.290444
25244 2 0.0249987 0.190579 0.293371
25325 5 0.00922974 0.181682 0.283949
25302 5 0.0700286 0.148098 0.271849
25305 5 0.0716212 0.2109 0.267745
22742 1 0.0995669 0.180972 0.267676
25301 5 0.0318557 0.148079 0.267124
25242 1 0.00640766 0.179443 0.264524
25376 5 0.0284536 0.218157 0.264134
25298 2 0.0525235 0.218299 0.260229
25289 6 0.0804128 0.154361 0.308763
25498 9 0.0239429 0.190697 0.310173
25371 4 0.0578478 0.24249 0.257504
22690 1 0.105981 0.244763 0.264638
22695 5 0.10524 0.183001 0.288898
22773 5 0.108312 0.24642 0.283483
25331 7 0.0835321 0.22865 0.311078
22693 3 0.118691 0.184107 0.306973
25322 5 0.0461338 0.248529 0.287912
25330 7 0.0906848 0.205164 0.309512
25254 7 0.0924314 0.166247 0.308636
25304 4 0.0515636 0.200347 0.25204
22697 3 0.115883 0.248463 0.303726
25499 9 0.0205323 0.239584 0.309164
25321 5 0.00531784 0.248692 0.285202
19366 7 0.323527 0.00124741 0.49422
22694 4 0.125786 0.15098 0.294106
22691 2 0.125403 0.176142 0.295517
22748 4 0.152412 0.181944 0.258722
22674 2 0.152408 0.156111 0.26095
22754 5 0.13046 0.150589 0.265378
20202 5 0.22985 0.215118 0.262552
22672 1 0.17748 0.150378 0.289237
20142 4 0.230299 0.214179 0.293902
20147 5 0.205864 0.180939 0.287852
22696 5 0.14847 0.183875 0.292228
20074 3 0.224284 0.181597 0.305266
20069 2 0.226575 0.189492 0.293273
22689 1 0.171798 0.214565 0.288366
20139 2 0.226891 0.238883 0.293639
20067 1 0.204183 0.182586 0.266695
22680 5 0.170585 0.152549 0.269391
22750 5 0.171726 0.215175 0.267473
22749 5 0.13004 0.21226 0.266357
20125 5 0.229745 0.151874 0.264852
22744 2 0.152566 0.20638 0.261345
22737 6 0.180769 0.221422 0.307547
22736 6 0.189917 0.150591 0.308694
22698 5 0.146721 0.243424 0.289672
20190 1 0.198741 0.24513 0.265312
20393 9 0.230262 0.236409 0.310407
20143 5 0.206143 0.243722 0.286677
22705 7 0.200277 0.163703 0.309098
22747 5 0.14955 0.22051 0.251503
22945 9 0.132485 0.1889 0.310846
20392 9 0.223827 0.194212 0.310373
20141 3 0.222001 0.245843 0.305846
20144 5 0.247728 0.248167 0.288183
20075 5 0.247339 0.180594 0.287713
22704 7 0.200455 0.138575 0.310571
22702 7 0.192737 0.2315 0.305295
22679 3 0.158349 0.143687 0.250759
20081 7 0.254456 0.165851 0.307737
17572 4 0.359954 0.183971 0.257796
20126 5 0.271747 0.152825 0.264917
20066 1 0.270993 0.149472 0.28653
17516 2 0.325041 0.174547 0.293777
17518 3 0.32261 0.184391 0.305382
20114 6 0.284414 0.213172 0.306908
17519 4 0.321357 0.149279 0.295196
17521 5 0.347566 0.180891 0.289017
20120 1 0.277883 0.212408 0.286074
17520 5 0.30522 0.182635 0.286861
17595 5 0.307449 0.24276 0.285175
17567 1 0.300558 0.182734 0.265204
20128 5 0.270531 0.211913 0.265332
17577 5 0.331519 0.153475 0.261867
17573 5 0.32948 0.212647 0.261747
17498 2 0.355261 0.158646 0.258364
20121 2 0.250397 0.145313 0.259356
17569 2 0.353354 0.208509 0.257777
20122 2 0.252151 0.219308 0.257961
20196 4 0.254303 0.244918 0.257936
20113 6 0.262732 0.152092 0.307929
17523 5 0.348462 0.238384 0.287787
17515 1 0.305134 0.245479 0.264999
17839 9 0.310344 0.194242 0.305513
20079 7 0.293159 0.226949 0.307216
17522 3 0.322422 0.240809 0.304185
17529 7 0.351723 0.200403 0.307471
17574 5 0.37115 0.217712 0.265119
17505 5 0.371586 0.148312 0.266598
17561 6 0.36781 0.20484 0.307227
20082 7 0.252926 0.139227 0.306721
17514 1 0.371199 0.209735 0.286914
15305 9 0.364243 0.14311 0.312785
20080 7 0.285533 0.208589 0.314323
17452 7 0.326328 0.146356 0.312905
15020 4 0.454171 0.244249 0.259888
14945 2 0.452841 0.141056 0.260967
14886 1 0.407995 0.179941 0.262525
14894 3 0.375989 0.143472 0.306679
14972 5 0.40952 0.183473 0.281777
14896 5 0.44923 0.179676 0.290809
14888 8 0.405768 0.149007 0.308195
12342 3 0.481483 0.213316 0.308713
14895 4 0.412953 0.171197 0.299443
14964 2 0.423882 0.235055 0.29426
14967 4 0.421077 0.210233 0.29558
14889 2 0.423911 0.185552 0.291526
17496 1 0.378646 0.147711 0.287125
14944 1 0.480552 0.214475 0.288954
14885 1 0.472985 0.149828 0.290149
14953 5 0.468926 0.211784 0.269297
14936 6 0.474769 0.154675 0.310515
14950 5 0.469709 0.146939 0.269594
15025 5 0.431401 0.210536 0.263291
14949 5 0.42947 0.150502 0.262161
14946 2 0.453377 0.219554 0.260714
15015 1 0.400533 0.242433 0.26633
14969 5 0.448158 0.240297 0.29137
14968 5 0.407075 0.241507 0.285738
14901 7 0.480294 0.147052 0.316875
14966 3 0.418903 0.247937 0.305062
22186 5 0.173768 0.245534 0.444695
25184 7 0.0539285 0.0396001 0.310343
25185 7 0.0386015 0.0686938 0.317403
25256 7 0.0701667 0.0876541 0.314551
25183 7 0.068785 0.03246 0.318747
24544 6 0.0940014 0.0235371 0.335252
24654 7 0.10902 0.0937057 0.334954
24655 7 0.0879162 0.0918668 0.328205
24614 6 0.0950236 0.0846778 0.334532
24820 9 0.039836 0.0622715 0.33396
24550 1 0.0890931 0.0865532 0.354669
24571 2 0.0357297 0.0604216 0.350651
24576 3 0.0336921 0.0511476 0.339144
24577 5 0.0588615 0.0538271 0.354667
24639 2 0.0351572 0.110935 0.3516
24643 4 0.0343736 0.0856205 0.350728
24644 5 0.0192296 0.115949 0.360833
24645 5 0.0588227 0.118299 0.354598
24649 5 0.0172082 0.0529374 0.35806
24568 1 0.0848467 0.0244202 0.355405
22022 5 0.118997 0.0582835 0.356258
22097 5 0.120409 0.120397 0.355274
24582 7 0.100479 0.0102663 0.332277
24581 7 0.105936 0.0352731 0.335148
25186 7 0.0336723 0.0912925 0.32323
25217 6 0.0436493 0.0789992 0.323388
1825 7 0.00679507 0.0357243 0.337524
1824 7 0.000847376 0.00997587 0.337932
22267 9 0.126285 0.0602991 0.335191
22017 1 0.118127 0.115919 0.374478
1326 7 0.0077907 0.0804653 0.335974
24642 5 0.0280602 0.125276 0.342948
24653 7 0.0826401 0.118925 0.331851
1327 7 0.0016835 0.104439 0.338319
19998 3 0.182014 0.0228361 0.311516
22268 9 0.132496 0.121919 0.329573
22943 9 0.115837 0.0489584 0.314319
20409 9 0.170723 0.0344048 0.315143
22266 9 0.131506 0.0107261 0.337818
22020 3 0.132429 0.047269 0.337741
20391 9 0.222289 0.107879 0.313253
22024 3 0.132509 0.112048 0.335677
22032 7 0.179522 0.0204887 0.328869
22021 4 0.13634 0.0234887 0.355061
20065 6 0.236719 0.0256175 0.322819
22631 7 0.17269 0.0898506 0.328469
22632 7 0.16831 0.101158 0.339454
19714 9 0.226428 0.0781561 0.337091
22666 6 0.178706 0.0901457 0.335808
19468 3 0.232872 0.109154 0.338682
19398 3 0.229099 0.0625882 0.338767