ITEM: TIMESTEP
412000
ITEM: NUMBER OF ATOMS
25520
ITEM: BOX BOUNDS pp pp pp
-3.8223617946947019e-01 6.0080779769469252e+01
-1.9378121287152843e+00 5.9108097402715750e+01
-1.2630576928526747e+01 1.1190630933453366e+02
ITEM: ATOMS id type xs ys zs
25182 6 0.110147 0.0205642 0.152025
25252 6 0.107843 0.09059 0.152026
25214 3 0.0408 0.0466801 0.156949
25287 5 0.0318004 0.0529779 0.176521
25283 5 0.0711408 0.116458 0.170155
25282 5 0.0317769 0.113461 0.176354
25281 4 0.0487525 0.0838152 0.164753
25277 2 0.0476837 0.109388 0.166839
25215 5 0.0731705 0.0517779 0.169769
25209 2 0.0486235 0.0590397 0.167756
25188 1 0.103059 0.0855021 0.171764
25458 9 0.0459164 0.0537525 0.150441
25206 1 0.0998285 0.0230704 0.172037
2433 1 0.00695415 0.0224093 0.17644
25293 7 0.0992735 0.087471 0.145746
25220 7 0.121874 0.0304811 0.150487
25219 7 0.118446 0.00631432 0.149854
25292 7 0.115741 0.104193 0.150169
22669 7 0.198144 0.0328133 0.146715
22735 5 0.131329 0.114669 0.170931
22660 5 0.132798 0.0567202 0.172911
22905 9 0.133868 0.0651927 0.154191
22662 3 0.146475 0.118733 0.151812
22658 3 0.145502 0.0542581 0.154172
22656 2 0.151365 0.0477983 0.166144
20112 5 0.232848 0.0552793 0.17325
22663 5 0.173155 0.117087 0.166163
22654 1 0.19921 0.0864382 0.170028
22661 5 0.174168 0.055107 0.16873
22659 4 0.149394 0.022378 0.167537
22563 1 0.20321 0.0233303 0.173804
22629 6 0.204996 0.0266446 0.153533
22630 6 0.183761 0.0881111 0.150371
22667 7 0.176962 0.102134 0.151605
22668 7 0.171851 0.0771753 0.15113
20108 5 0.233563 0.118646 0.171963
22657 2 0.149362 0.124281 0.163644
22670 7 0.220457 0.0305027 0.152139
20036 3 0.24719 0.046424 0.154817
22906 9 0.151053 0.130741 0.147246
20107 4 0.248989 0.0862374 0.162278
20031 2 0.251396 0.0609861 0.165299
20352 9 0.254186 0.0540986 0.148743
20353 9 0.248671 0.118414 0.148472
20104 2 0.252135 0.110934 0.164892
20118 7 0.310427 0.0755314 0.144789
20117 7 0.323685 0.0705074 0.155058
20077 6 0.311977 0.0810278 0.151766
17480 3 0.350016 0.0511667 0.156454
17799 9 0.358714 0.063524 0.154156
17478 2 0.352365 0.0461723 0.168736
20109 5 0.276229 0.116572 0.168327
17482 5 0.332819 0.0554997 0.175215
20037 5 0.272786 0.053058 0.169867
20011 1 0.304555 0.0848337 0.172565
20028 1 0.297566 0.0230257 0.172442
17481 4 0.349643 0.0208827 0.171257
17560 5 0.332917 0.115279 0.173848
17484 3 0.35059 0.106554 0.155528
17479 2 0.352664 0.120724 0.166603
20003 6 0.291783 0.0236882 0.152691
20041 7 0.275798 0.0282631 0.150951
20042 7 0.291272 0.00987732 0.149496
17800 9 0.335371 0.105011 0.154583
17485 5 0.373923 0.111675 0.171982
17483 5 0.375448 0.055725 0.170656
17798 9 0.344481 -0.000225604 0.152952
17490 7 0.381844 0.0978376 0.150786
17489 7 0.390571 0.0773566 0.145439
17451 6 0.392205 0.0860887 0.152034
14856 3 0.441422 0.0422777 0.159367
15246 9 0.45493 0.0367326 0.155581
14929 4 0.446722 0.0817749 0.166116
14926 2 0.451106 0.106612 0.164389
14851 2 0.448129 0.0577783 0.168855
14931 5 0.474131 0.11206 0.168402
14857 5 0.472168 0.0513244 0.170892
17476 1 0.398161 0.0840933 0.172124
14934 5 0.433128 0.0530783 0.178698
14930 5 0.433863 0.117027 0.172194
17384 1 0.405113 0.0183354 0.173824
17450 6 0.406301 0.0137898 0.153793
14928 3 0.448753 0.117854 0.153275
15247 9 0.445841 0.106507 0.14762
17492 7 0.420133 0.0247749 0.153721
17491 7 0.404961 0.00960199 0.14596
14861 7 0.483057 0.00574305 0.154641
14826 6 0.493165 0.0180497 0.154625
14848 1 0.498249 0.0208131 0.174446
25280 5 0.0394531 0.127699 0.159022
25290 7 0.104391 0.174404 0.154991
2033 7 0.0432448 0.143174 0.133465
25253 6 0.0939948 0.161641 0.155006
2032 7 0.0393996 0.169143 0.134234
1995 6 0.0349748 0.154844 0.137956
25275 1 0.0965189 0.145997 0.17397
25278 8 0.0316745 0.153135 0.153256
22957 9 0.0829941 0.207336 0.15185
22732 3 0.095895 0.213478 0.156462
25285 4 0.0422301 0.172715 0.162019
25359 5 0.032751 0.181287 0.180888
25356 5 0.0724071 0.244333 0.17445
25354 4 0.0507593 0.210832 0.169414
25351 2 0.050016 0.236523 0.170501
25286 5 0.0723654 0.178374 0.17373
25279 2 0.0491408 0.186092 0.171925
25259 1 0.102061 0.212829 0.174935
25355 5 0.0335543 0.240393 0.179806
25394 6 0.0439852 0.211642 0.145086
1933 1 0.00502554 0.146886 0.177152
25291 7 0.0798617 0.166483 0.157892
2104 7 0.00633128 0.222538 0.150087
25459 9 0.0421554 0.233233 0.154107
25353 3 0.0439273 0.246104 0.159193
25432 7 0.0486638 0.201589 0.150686
25433 7 0.0565318 0.212614 0.140526
25284 3 0.00172004 0.154061 0.157466
1963 7 0.119944 0.218396 0.132417
22741 7 0.221324 0.159788 0.149733
1962 7 0.14366 0.230548 0.135124
22740 7 0.206202 0.144693 0.144455
1927 6 0.134056 0.216328 0.137407
22726 8 0.126517 0.212967 0.152559
22730 5 0.131948 0.178127 0.176683
22700 6 0.205208 0.155181 0.15047
22636 1 0.201594 0.148548 0.170986
22729 4 0.147453 0.14997 0.165038
22733 4 0.135952 0.233398 0.162312
20188 7 0.195853 0.21783 0.144907
20189 7 0.218824 0.220746 0.148703
20148 6 0.203543 0.219377 0.151448
22728 5 0.137593 0.190395 0.159523
22725 2 0.147705 0.174711 0.167237
20178 5 0.232805 0.239269 0.174984
20183 5 0.233729 0.179273 0.173724
22723 1 0.196794 0.211794 0.171381
22731 5 0.171363 0.18347 0.169246
22734 5 0.172361 0.241914 0.173155
22807 5 0.133296 0.243782 0.180927
20110 3 0.246839 0.172219 0.154512
20354 9 0.250692 0.15602 0.155886
22727 2 0.147324 0.246587 0.17108
20106 3 0.250774 0.126794 0.15482
20177 4 0.248735 0.210557 0.162563
20173 2 0.249039 0.235348 0.164766
20105 2 0.25001 0.185212 0.164978
17555 4 0.351594 0.145247 0.164569
20102 1 0.301775 0.148532 0.17115
17554 3 0.347317 0.183718 0.154695
17801 9 0.343086 0.17494 0.148724
17558 3 0.343773 0.234432 0.154759
17552 2 0.351843 0.171386 0.165604
17556 5 0.333613 0.176943 0.173633
20111 5 0.274358 0.181956 0.168404
20084 1 0.303043 0.20905 0.172589
20179 5 0.273933 0.240601 0.167255
17631 5 0.333904 0.241874 0.173327
17557 5 0.37496 0.178126 0.169613
17559 5 0.375527 0.239024 0.167363
17802 9 0.347747 0.219516 0.154444
17553 2 0.351742 0.246757 0.164924
17564 7 0.402021 0.238103 0.148418
17563 7 0.38253 0.229809 0.153442
14940 7 0.47842 0.130316 0.150658
17565 7 0.426986 0.153243 0.152659
17566 7 0.418424 0.131186 0.148447
14938 7 0.445553 0.190472 0.139687
14937 7 0.424042 0.201141 0.140791
17525 6 0.413499 0.143219 0.152992
17459 1 0.405151 0.144939 0.172927
17526 6 0.395786 0.223549 0.15046
14899 6 0.437733 0.203745 0.137488
15248 9 0.467681 0.164768 0.152727
15002 3 0.4463 0.23856 0.151159
14932 3 0.454963 0.172729 0.154366
15000 2 0.452672 0.232097 0.162815
15003 4 0.45389 0.207744 0.164784
14927 2 0.453678 0.182431 0.165735
15005 5 0.475125 0.240703 0.165679
14933 5 0.476072 0.173297 0.169789
15004 5 0.434921 0.238056 0.171154
17550 1 0.400048 0.207078 0.169859
15008 5 0.432591 0.175178 0.171125
15249 9 0.441742 0.225483 0.146998
14898 6 0.491453 0.140592 0.150915
14924 1 0.49808 0.14345 0.172228
17512 7 0.271958 0.00373521 0.232986
25237 7 0.0223591 0.0483127 0.236441
25269 6 0.00599684 0.114605 0.244834
25471 9 0.067765 0.0205562 0.242867
25198 5 0.098269 0.0838334 0.192723
25195 5 0.0971084 0.0237583 0.194037
25268 5 0.0567984 0.0815414 0.194538
25258 1 0.0268234 0.115821 0.197218
25207 1 0.0311655 0.0544515 0.197643
25191 2 0.0788748 0.089549 0.199485
25263 4 0.0757834 0.114797 0.200447
25197 4 0.0794009 0.0775729 0.210309
25192 5 0.0740163 0.0320717 0.211062
25196 3 0.0381725 0.0575891 0.217403
25190 8 0.0685528 0.0554445 0.218732
25510 9 0.026071 0.0479453 0.220458
25517 7 0.0827653 0.0733277 0.23675
25240 6 0.0856435 0.0579804 0.232294
22685 7 0.0884305 0.0953118 0.222008
25506 7 0.0832963 0.0471031 0.238634
22649 6 0.0955586 0.106488 0.226093
25194 5 0.0573643 0.0157695 0.197377
25189 2 0.0801267 0.0165437 0.201817
25201 6 0.0119472 0.0550349 0.241164
22684 7 0.110809 0.102316 0.225674
25271 7 0.0314929 0.11402 0.224712
25308 6 0.021691 0.115271 0.218024
25472 9 0.0651305 0.10028 0.243938
22651 7 0.115781 0.0553533 0.221398
25311 7 0.0187793 0.108129 0.241181
25203 7 0.07856 0.0102882 0.223248
25227 3 0.0661621 0.0302778 0.248708
22635 1 0.126717 0.0506383 0.194079
22717 6 0.113455 0.119944 0.246549
22759 7 0.106278 0.120694 0.239602
25270 6 0.0513879 0.117585 0.236766
25309 7 0.0648111 0.123085 0.232287
25231 3 0.0693582 0.0876273 0.248846
15261 9 0.473387 0.165248 0.247623
25205 7 0.0153096 0.00607443 0.221708
20062 7 0.116064 0.0747806 0.234048
22686 7 0.135362 0.0228208 0.239052
25235 6 0.0777917 0.00341252 0.230359
22760 7 0.125857 0.110016 0.245177
20046 7 0.227582 -0.000291277 0.221834
20061 7 0.139255 0.0673859 0.234976
22687 7 0.149712 0.019433 0.229777
22683 6 0.124603 0.052591 0.215337
20135 7 0.227478 0.0697484 0.244785
22650 7 0.132263 0.0392036 0.218105
22643 5 0.196118 0.0869212 0.190527
22648 6 0.144917 0.0312126 0.234495
20023 6 0.130806 0.0799918 0.235866
22572 5 0.198936 0.0213529 0.194071
20083 1 0.22545 0.116729 0.191925
20134 7 0.206873 0.0607353 0.239205
22919 9 0.157422 0.0878097 0.244262
22655 1 0.130658 0.114137 0.192631
20029 1 0.231447 0.0554822 0.194136
22642 5 0.155608 0.0832096 0.192706
20063 7 0.174287 0.0670837 0.219731
22637 2 0.178066 0.0792952 0.197903
22641 4 0.18157 0.0550713 0.200962
22565 2 0.180297 0.0294944 0.201307
22640 5 0.17345 0.0930343 0.207941
20060 6 0.223996 0.0548515 0.215014
20022 6 0.18046 0.0593946 0.225991
20064 7 0.167883 0.0542755 0.229446
22647 5 0.158741 0.0205588 0.196206
20096 6 0.217754 0.055811 0.244511
22571 3 0.181903 0.0217862 0.212863
22638 8 0.162721 0.115877 0.215524
22918 9 0.165273 0.0280731 0.243982
22965 7 0.167432 0.114919 0.236427
22644 3 0.132926 0.11802 0.212039
22688 6 0.175337 0.122181 0.229588
20025 7 0.22386 0.0388685 0.213387
20131 6 0.218512 0.122794 0.212251
20024 7 0.210606 0.0556548 0.218941
20099 7 0.221215 0.117624 0.219837
22931 9 0.176997 0.0339311 0.218149
17471 6 0.241065 0.0166783 0.234458
22653 7 0.146715 0.0156708 0.213616
17509 7 0.232408 0.00550179 0.238549
20132 7 0.194518 0.110111 0.247292
17510 7 0.233798 0.0303325 0.234685
20097 6 0.206232 0.120906 0.248375
20100 7 0.226028 0.0879948 0.228939
20130 6 0.233947 0.101633 0.230982
20045 7 0.205608 0.00204474 0.215964
20101 7 0.244465 0.0953288 0.236148
20133 7 0.215454 0.115794 0.242218
17511 7 0.279135 0.00369527 0.221102
17456 7 0.291739 0.0450162 0.244415
20365 9 0.256155 0.0266013 0.245395
20020 5 0.298175 0.0826969 0.19425
20017 5 0.295528 0.0246095 0.192477
20016 5 0.254872 0.0232709 0.196511
17477 1 0.330287 0.118723 0.195627
17458 1 0.32587 0.0540975 0.195274
20095 5 0.257715 0.0814008 0.196025
17464 5 0.354082 0.0876776 0.197737
20013 2 0.27941 0.0895725 0.201454
20379 9 0.283034 0.0911179 0.218158
20089 4 0.281632 0.11511 0.201482
20019 3 0.28191 0.0796366 0.212844
20378 9 0.271027 0.0399873 0.212115
17466 6 0.32171 0.0528731 0.215748
17493 7 0.305142 0.0543692 0.215508
17494 7 0.327138 0.0632909 0.221998
14960 7 0.351277 0.0888499 0.221211
14918 6 0.338842 0.0889317 0.226386
14959 7 0.346597 0.0861183 0.233084
17469 5 0.353462 0.0191685 0.198006
17457 7 0.309545 0.0624238 0.241568
20014 3 0.28243 0.0297191 0.211241
20012 2 0.277793 0.0164386 0.200254
17503 6 0.307077 0.0520178 0.246647
17499 3 0.364172 0.0878031 0.245707
17582 7 0.32337 0.11164 0.2399
17548 7 0.262332 0.120574 0.228701
14847 7 0.376744 0.0479302 0.236791
15262 9 0.467543 0.221184 0.242538
14846 7 0.377806 0.0645399 0.228403
17544 6 0.31304 0.120453 0.24427
17583 7 0.300822 0.122383 0.239866
17860 7 0.365835 0.0101498 0.227073
14878 6 0.381422 0.0497172 0.229434
17472 7 0.33014 0.118032 0.220612
17508 6 0.33251 0.130959 0.215954
17578 6 0.277725 0.123905 0.228138
20366 9 0.275956 0.075768 0.248035
15275 9 0.490516 0.194577 0.211986
17463 4 0.377723 0.0522645 0.199874
17825 9 0.375163 0.0350173 0.217586
17813 9 0.376839 0.0980755 0.245395
17386 2 0.376381 0.0274382 0.200853
17460 2 0.375867 0.0774249 0.200616
14840 5 0.494693 0.0838297 0.193726
17826 9 0.393746 0.0767246 0.21507
15272 9 0.481129 0.00329661 0.218713
17462 3 0.383098 0.0870016 0.212086
14838 5 0.492801 0.0259272 0.195286
17465 5 0.395239 0.086001 0.193861
17391 3 0.38036 0.0229078 0.212805
14906 1 0.423779 0.114356 0.192779
17392 5 0.394801 0.0181861 0.193593
14849 1 0.428471 0.0514021 0.196781
14917 5 0.453086 0.0823386 0.196947
14837 5 0.452573 0.0214374 0.200231
14911 4 0.477295 0.114177 0.200506
14834 2 0.475771 0.090037 0.200886
14839 3 0.477874 0.0843546 0.213055
14955 6 0.419192 0.051175 0.216369
15273 9 0.476729 0.0981775 0.2176
14922 7 0.430784 0.0509406 0.221781
14923 7 0.405715 0.0460683 0.22034
15308 7 0.463267 0.0662481 0.223557
14884 6 0.461237 0.0517098 0.228273
15297 7 0.47474 0.0416267 0.225762
15303 9 0.408061 0.046589 0.239961
14868 8 0.450381 0.0527724 0.242695
14835 3 0.485363 0.0177195 0.215294
14874 3 0.420417 0.0517378 0.245655
14833 2 0.476175 0.015955 0.203235
14951 6 0.404881 0.122969 0.244223
14914 6 0.420558 0.114757 0.212985
14942 7 0.405948 0.107028 0.214249
12366 6 0.476293 0.114518 0.230238
14844 7 0.409517 0.00531037 0.21716
14941 7 0.422334 0.124792 0.218778
20008 7 0.195465 0.00885786 0.247273
17855 9 0.306201 0.000548099 0.245038
25272 7 0.011004 0.126887 0.22051
25343 6 0.00572749 0.23879 0.244441
25310 7 0.0516084 0.128491 0.242806
22758 7 0.0960327 0.187195 0.241152
25484 9 0.0907344 0.129072 0.218541
25267 5 0.0967675 0.205755 0.195413
25265 5 0.0967239 0.14726 0.1953
25348 7 0.00411567 0.18413 0.216698
25347 7 0.0136102 0.164026 0.221652
25512 9 0.00914944 0.162908 0.240809
25303 3 0.0187775 0.172551 0.246206
25260 2 0.07975 0.139078 0.203135
25264 5 0.0566647 0.149473 0.200715
25332 1 0.0283842 0.240256 0.198847
25276 1 0.0324019 0.178655 0.199505
25342 5 0.0584405 0.204553 0.20217
25337 4 0.0811355 0.240391 0.201911
25261 2 0.080101 0.215405 0.203426
25266 3 0.0896828 0.21226 0.215473
25262 3 0.0890482 0.143786 0.21466
25485 9 0.0950243 0.196951 0.215826
22720 7 0.110155 0.165964 0.217455
25377 6 0.0188624 0.178586 0.219001
25507 7 0.060721 0.189046 0.224294
25518 7 0.0725702 0.166599 0.227426
25314 6 0.0655675 0.180684 0.231235
25297 8 0.0481428 0.178445 0.243714
22718 6 0.106099 0.183242 0.247142
22830 7 0.0705371 0.228453 0.226749
22791 6 0.0622628 0.239134 0.231382
22829 7 0.0576475 0.230638 0.237504
25345 7 0.0359222 0.241619 0.224045
22751 3 0.117908 0.238847 0.244093
25381 7 0.0099821 0.242011 0.237422
25378 6 0.0249971 0.2391 0.217699
22756 6 0.122776 0.173874 0.214219
22757 7 0.120695 0.181353 0.242877
22825 6 0.126844 0.241878 0.217903
22960 9 0.10931 0.237109 0.236746
22796 7 0.117228 0.228234 0.217579
14913 5 0.495159 0.147497 0.193587
22682 6 0.131875 0.00817534 0.215726
22679 3 0.165237 0.149192 0.249882
22954 7 0.177358 0.139559 0.231509
20098 7 0.205131 0.132292 0.212522
22958 9 0.12358 0.132658 0.212752
22706 1 0.124837 0.17691 0.194903
20165 6 0.208247 0.228867 0.247871
20170 7 0.196942 0.162696 0.246633
22646 5 0.196291 0.145591 0.191368
22719 7 0.133594 0.177197 0.220248
22713 5 0.194989 0.20862 0.192813
20103 1 0.22989 0.177688 0.192822
22716 5 0.156712 0.142203 0.192012
20154 1 0.224493 0.239087 0.194619
22724 1 0.131081 0.24129 0.198318
22722 7 0.15211 0.198316 0.236697
22645 4 0.173634 0.137586 0.207579
22712 5 0.155186 0.212235 0.197582
22639 2 0.176566 0.151519 0.19788
22708 2 0.176777 0.201645 0.200407
22711 4 0.175157 0.17601 0.200789
22710 3 0.184228 0.21001 0.211875
22932 9 0.184641 0.196948 0.216638
20204 6 0.21647 0.240231 0.215925
20092 3 0.234187 0.176433 0.211919
22721 7 0.155525 0.174566 0.24066
20406 9 0.221548 0.175908 0.217429
22966 7 0.162567 0.234064 0.224539
22745 8 0.148931 0.242371 0.243932
20166 6 0.185717 0.170441 0.22272
20206 7 0.171218 0.173968 0.225084
22755 6 0.14715 0.18242 0.234832
20205 7 0.181232 0.163541 0.21595
22762 6 0.169298 0.237254 0.232207
20169 7 0.202537 0.172402 0.236766
20203 6 0.204678 0.175533 0.24428
20168 7 0.203425 0.23077 0.216793
20207 7 0.210334 0.227551 0.240103
22920 9 0.177427 0.138503 0.250252
14916 5 0.497475 0.209448 0.191616
17545 6 0.32041 0.246001 0.243162
14910 3 0.480473 0.147332 0.213232
17504 3 0.366254 0.148028 0.246719
17549 7 0.277203 0.126459 0.220899
20123 3 0.265759 0.149544 0.246857
17651 6 0.278804 0.242139 0.228992
17473 7 0.348944 0.132697 0.216211
20367 9 0.26564 0.13654 0.242576
20368 9 0.261026 0.225602 0.241978
20091 5 0.295588 0.145286 0.190432
20094 5 0.295101 0.209239 0.191864
20127 3 0.265153 0.213073 0.246021
17571 3 0.364261 0.214118 0.246283
17531 1 0.325724 0.181062 0.193055
20090 5 0.256444 0.1419 0.19259
17551 1 0.332497 0.237884 0.193825
17538 5 0.356615 0.210107 0.193351
20164 5 0.25311 0.218325 0.195322
17543 5 0.35469 0.149442 0.197
20085 2 0.27822 0.139432 0.198257
20086 8 0.264505 0.177529 0.215404
20087 2 0.277335 0.217112 0.199179
20159 4 0.284376 0.24018 0.202381
20088 5 0.273328 0.155494 0.207259
20093 4 0.27369 0.201182 0.208402
17547 7 0.30805 0.187587 0.213868
17540 3 0.333549 0.242005 0.213769
17579 6 0.323802 0.190015 0.213683
17546 7 0.325689 0.205631 0.216649
20136 6 0.277551 0.18188 0.229866
20413 7 0.273278 0.197048 0.233226
20402 7 0.273385 0.169568 0.235958
17534 8 0.364104 0.243554 0.215385
17580 7 0.330336 0.236237 0.247953
17815 9 0.364833 0.200907 0.242084
17814 9 0.365275 0.161648 0.241507
17617 7 0.291299 0.239062 0.233064
15026 6 0.366923 0.176522 0.230563
14997 7 0.355127 0.184482 0.227358
14996 7 0.372393 0.167569 0.224289
17861 7 0.38269 0.233654 0.233068
17537 4 0.380802 0.179912 0.201204
14909 2 0.478337 0.215161 0.199644
15027 6 0.423403 0.239973 0.21002
14985 4 0.481318 0.240398 0.20117
17539 5 0.39856 0.211345 0.191726
14915 3 0.477879 0.20412 0.2111
14952 3 0.46821 0.209946 0.247592
14957 7 0.398552 0.18415 0.237711
17461 2 0.377712 0.154618 0.200965
17536 5 0.373275 0.220684 0.207884
17533 2 0.378149 0.204764 0.198895
14992 6 0.417614 0.250437 0.24377
12408 7 0.470762 0.118145 0.237388
14947 3 0.465328 0.151419 0.246327
15274 9 0.467182 0.152784 0.215793
17467 3 0.378447 0.146404 0.212858
12353 7 0.493661 0.189102 0.242375
14995 7 0.437432 0.242662 0.213224
14908 2 0.476061 0.139881 0.200873
12328 7 0.424679 0.154011 0.230141
14991 5 0.456297 0.209363 0.194786
14958 7 0.423671 0.180436 0.236131
12291 6 0.43837 0.147271 0.22693
17827 9 0.393835 0.144322 0.215028
14979 1 0.425084 0.237313 0.190845
14994 7 0.413402 0.241807 0.215924
12407 7 0.478951 0.127549 0.225654
14921 7 0.451253 0.188792 0.212943
14905 7 0.391891 0.133569 0.244654
12329 7 0.447876 0.150051 0.233257
14956 6 0.435673 0.183978 0.214464
14904 7 0.412214 0.126713 0.237612
14919 6 0.4126 0.180803 0.241997
14925 1 0.431328 0.17697 0.193884
14920 7 0.437799 0.167747 0.217375
17468 5 0.395741 0.144318 0.193692
17584 6 0.381486 0.248062 0.228463
14912 5 0.452665 0.147523 0.197008
25346 7 0.0105747 0.248088 0.219468
22795 7 0.11772 0.250309 0.223547
17854 9 0.322563 0.249273 0.218869
22955 7 0.180627 0.250307 0.230001
22675 3 0.166045 0.094074 0.249966
20056 3 0.266347 0.0872624 0.249298
25178 3 0.0219816 0.0454159 0.299828
25245 3 0.0213619 0.110777 0.304586
25251 5 0.017675 0.0544218 0.280649
25246 4 0.0339926 0.084213 0.290678
25243 2 0.0328224 0.109445 0.29343
25224 1 0.0853176 0.0879742 0.289105
25179 5 0.0555216 0.0512853 0.289336
25173 2 0.0326847 0.0590796 0.290343
25170 1 0.0808909 0.024436 0.288942
25232 5 0.0772253 0.0848131 0.267976
25230 5 0.0763784 0.026554 0.26874
22671 1 0.108154 0.0570005 0.267627
25171 1 0.0109156 0.0529024 0.261642
25229 5 0.0371015 0.0181979 0.262078
25294 1 0.0074648 0.11457 0.265555
25306 5 0.0366048 0.0818654 0.261772
25226 2 0.059341 0.0931677 0.260094
25225 2 0.0624652 0.0182372 0.259493
25496 9 0.0261345 0.0502051 0.3067
25288 6 0.0944462 0.086021 0.309182
25497 9 0.0093076 0.100271 0.304982
22619 1 0.111497 0.117865 0.267151
25300 4 0.0599405 0.117906 0.260456
25248 5 0.0556789 0.119321 0.291854
22699 5 0.116584 0.115502 0.287612
22624 5 0.11495 0.0589482 0.288284
25218 6 0.0821051 0.0212162 0.309618
25247 5 0.0169543 0.116208 0.285058
25495 9 0.02624 0.0155431 0.302033
25256 7 0.107901 0.076344 0.30804
25257 7 0.101244 0.101384 0.307509
25183 7 0.0960118 0.0133881 0.310369
25184 7 0.0716236 0.0118192 0.312181
22280 9 0.194716 0.00325022 0.421226
22626 3 0.127015 0.118814 0.307112
22622 3 0.132349 0.0597602 0.306877
22623 4 0.13085 0.0254863 0.295893
22681 5 0.138896 0.0288003 0.264336
22620 2 0.13399 0.0508678 0.295233
19999 4 0.227756 0.045115 0.302187
19993 2 0.232722 0.0626075 0.294247
20068 2 0.23527 0.112273 0.296404
20071 4 0.232587 0.0868207 0.297918
22625 5 0.156684 0.0565757 0.291056
22627 5 0.157537 0.115165 0.293681
22618 1 0.181966 0.0882687 0.289141
20076 5 0.215769 0.0594473 0.28487
22600 1 0.186553 0.0262401 0.289455
22609 5 0.17841 0.0255159 0.26967
22678 5 0.177243 0.0889452 0.270173
19990 1 0.214961 0.0556595 0.265661
22677 5 0.138284 0.0866609 0.264584
20129 5 0.237665 0.0887512 0.263545
20053 5 0.237121 0.0241828 0.263698
22602 2 0.162301 0.0322902 0.261033
22673 2 0.161576 0.0819857 0.261062
22676 4 0.164695 0.0570256 0.259101
19998 3 0.190218 0.0261395 0.309271
19992 8 0.220986 0.0231137 0.311141
20119 1 0.209301 0.120151 0.268682
20072 5 0.217219 0.120638 0.289533
22944 9 0.139057 0.112056 0.310977
22943 9 0.147597 0.0600074 0.310356
20070 3 0.23212 0.125443 0.306895
16794 7 0.262741 0.000827143 0.411729
19994 5 0.224248 -0.000164888 0.302682
20391 9 0.228296 0.116254 0.313004
22545 2 0.132241 0.0011757 0.292443
22608 3 0.167179 0.0191426 0.250605
20000 5 0.254878 0.054535 0.289643
17448 5 0.35809 0.117682 0.287427
17440 8 0.323693 0.0890301 0.30992
17446 3 0.292987 0.0921933 0.307978
17442 5 0.330109 0.0637212 0.303433
17447 4 0.326435 0.107137 0.29856
17443 4 0.333205 0.0223074 0.29614
17439 2 0.334074 0.046978 0.294599
20048 1 0.288336 0.0872783 0.28929
19989 1 0.280279 0.0244069 0.289856
17445 5 0.357035 0.0543441 0.290739
17444 5 0.316334 0.0536672 0.286435
20057 5 0.27787 0.0840105 0.269098
17495 1 0.308259 0.056301 0.267448
17506 5 0.336994 0.0286349 0.265098
20054 5 0.278619 0.022578 0.269908
17438 1 0.312594 0.118383 0.263707
17501 5 0.336082 0.0860721 0.261416
17421 2 0.361487 0.0302576 0.260463
20050 2 0.261035 0.0937051 0.260999
20049 2 0.261525 0.0178233 0.261402
17497 2 0.360614 0.0802454 0.257646
20040 6 0.283298 0.0310567 0.309068
17500 4 0.36302 0.0542331 0.255714
20073 5 0.257641 0.1181 0.291332
20124 4 0.261701 0.118731 0.261153
17524 5 0.317337 0.121836 0.281136
17441 2 0.333927 0.123513 0.290125
20005 7 0.271203 0.0266644 0.314075
20004 7 0.293946 0.0359904 0.314074
17427 4 0.358635 0.0126861 0.252269
20051 3 0.268065 0.028756 0.25064
17502 5 0.376537 0.0888581 0.265735
17428 5 0.380492 0.0227037 0.268339
17380 7 0.403312 0.0073478 0.307962
17437 1 0.381448 0.0854853 0.285496
14822 3 0.424263 0.0522648 0.303711
14891 4 0.43291 0.0872248 0.294144
14817 2 0.432127 0.0620347 0.292731
14887 2 0.435068 0.112112 0.290638
14823 5 0.45541 0.0550529 0.290164
17418 1 0.385911 0.022671 0.287465
14893 5 0.457925 0.119519 0.287588
14897 5 0.415367 0.0550343 0.284388
14892 5 0.416819 0.115959 0.282371
14866 1 0.487177 0.0836385 0.287392
14814 1 0.479552 0.0219676 0.288494
14873 5 0.478291 0.0227934 0.267907
14876 5 0.48035 0.0833788 0.267382
14815 1 0.41136 0.0531473 0.263784
14943 1 0.407132 0.116291 0.263964
14954 5 0.438571 0.08338 0.263796
17412 6 0.392785 0.0201218 0.308174
14869 2 0.461968 0.0899116 0.259864
14872 5 0.436322 0.0156267 0.264775
14867 2 0.459987 0.014908 0.260685
14948 4 0.460681 0.115214 0.256905
14860 6 0.491669 0.0841356 0.308448
17379 7 0.403776 0.0321334 0.309009
15286 9 0.429692 0.0613885 0.309588
14903 7 0.433552 0.0915804 0.310149
25296 2 0.0588847 0.143102 0.26259
25241 1 0.0778719 0.152338 0.290153
25249 3 0.024706 0.178397 0.305208
25360 6 0.0900667 0.212924 0.30777
25320 4 0.0276005 0.213132 0.293428
25317 2 0.0309596 0.238439 0.293178
25295 1 0.08435 0.213062 0.287655
25250 5 0.0521274 0.180574 0.291353
25244 2 0.0291179 0.188272 0.293828
25325 5 0.011888 0.178469 0.286188
25302 5 0.0758503 0.148425 0.270887
25305 5 0.0750015 0.210072 0.269479
22742 1 0.106193 0.179341 0.267206
25301 5 0.0355519 0.148599 0.266388
25242 1 0.0101406 0.17841 0.26537
25376 5 0.0323189 0.217856 0.265295
25298 2 0.0559547 0.217359 0.261596
25289 6 0.0864337 0.145823 0.31052
25366 1 0.0063357 0.24374 0.265246
25498 9 0.0187658 0.1895 0.310074
25371 4 0.0618748 0.241107 0.257957
22690 1 0.112061 0.240472 0.263522
22773 5 0.117294 0.244749 0.282592
25322 5 0.0542875 0.244256 0.289022
22695 5 0.113511 0.182037 0.287117
25499 9 0.0222083 0.241753 0.309336
25321 5 0.0105422 0.246048 0.287215
25330 7 0.10218 0.222509 0.308504
25331 7 0.0975291 0.199327 0.306811
25255 7 0.100372 0.139457 0.312822
22945 9 0.122257 0.164008 0.309062
25299 5 0.0570745 0.156026 0.25234
25304 4 0.0541528 0.201447 0.251992
22697 3 0.124222 0.24289 0.302231
22693 3 0.125975 0.178417 0.306403
1336 3 0.00217283 0.11603 0.423561
14870 5 0.457265 0.0309942 0.251346
22621 2 0.134021 0.124831 0.295301
22694 4 0.133792 0.149118 0.292802
22691 2 0.133584 0.174746 0.294228
22748 4 0.157844 0.179943 0.261572
22674 2 0.15856 0.155191 0.261692
22754 5 0.136595 0.146542 0.265297
20202 5 0.23784 0.209539 0.261424
22672 1 0.1864 0.149553 0.289431
20142 4 0.232443 0.211897 0.292808
20147 5 0.212642 0.178331 0.288225
22696 5 0.157844 0.185039 0.291533
20074 3 0.231186 0.182361 0.306318
20069 2 0.233723 0.186997 0.293673
22689 1 0.181306 0.211647 0.290114
20392 9 0.237259 0.194134 0.310067
20139 2 0.234231 0.237006 0.294475
20067 1 0.212834 0.180576 0.263939
22680 5 0.177413 0.147142 0.269161
22750 5 0.179918 0.211826 0.268369
22749 5 0.136244 0.211328 0.267586
20125 5 0.238117 0.151928 0.262808
22744 2 0.157943 0.20551 0.262651
22737 6 0.188194 0.222508 0.309305
22736 6 0.19654 0.152652 0.309409
22698 5 0.157806 0.241995 0.289845
20190 1 0.206167 0.241533 0.267287
20143 5 0.215283 0.2468 0.28835
20393 9 0.243624 0.234127 0.310699
20141 3 0.232911 0.243006 0.306568
22705 7 0.207712 0.16333 0.311537
22704 7 0.204571 0.139282 0.311388
22702 7 0.186806 0.213058 0.31553
22747 5 0.154408 0.220954 0.253085
22703 7 0.202849 0.229073 0.31114
24564 7 0.076111 0.00077384 0.414995
17572 4 0.359455 0.18184 0.257806
20126 5 0.278354 0.154373 0.266129
20075 5 0.255041 0.178136 0.28929
20066 1 0.281676 0.148587 0.287099
17516 2 0.334704 0.17317 0.293426
17518 3 0.33208 0.183572 0.304637
20114 6 0.292551 0.207884 0.306243
17519 4 0.333291 0.147633 0.294634
17521 5 0.356906 0.181738 0.290015
20120 1 0.285258 0.209769 0.285969
17520 5 0.315391 0.181476 0.285951
17595 5 0.313219 0.237374 0.284598
17567 1 0.309582 0.181147 0.264138
20128 5 0.279207 0.209402 0.265259
17577 5 0.338257 0.148712 0.262145
17573 5 0.336975 0.214381 0.260606
17498 2 0.361459 0.156766 0.258416
20121 2 0.260326 0.143479 0.258856
17569 2 0.36048 0.207222 0.258455
20122 2 0.260644 0.217778 0.258554
20196 4 0.263047 0.243054 0.258413
20113 6 0.279109 0.152963 0.307328
17523 5 0.355037 0.240624 0.286583
17515 1 0.312908 0.246249 0.263367
17840 9 0.321978 0.225882 0.303195
20144 5 0.257001 0.245655 0.291084
17530 7 0.366148 0.224409 0.310021
20079 7 0.304805 0.199202 0.308014
17529 7 0.366362 0.20331 0.304576
20081 7 0.265996 0.142491 0.308636
20082 7 0.26756 0.163465 0.305197
17839 9 0.333722 0.173116 0.310288
17561 6 0.377167 0.214456 0.306672
17517 2 0.332601 0.246278 0.291202
17522 3 0.332914 0.237057 0.302836
14890 5 0.428037 0.127047 0.299127
14900 7 0.49092 0.1313 0.307475
15020 4 0.465274 0.245904 0.257372
17505 5 0.379443 0.149633 0.265895
17574 5 0.378607 0.218725 0.265014
17514 1 0.38107 0.211778 0.286157
14945 2 0.45902 0.140253 0.257353
14886 1 0.413921 0.181265 0.262618
14894 3 0.390063 0.147585 0.304929
14972 5 0.41743 0.184105 0.280045
14896 5 0.456789 0.179519 0.287083
14888 8 0.419457 0.150007 0.307273
12342 3 0.491136 0.210826 0.305992
14895 4 0.424149 0.171776 0.297645
14964 2 0.433734 0.236932 0.291901
14967 4 0.432042 0.21212 0.293688
14889 2 0.432813 0.187489 0.289776
17496 1 0.388795 0.149771 0.285653
14944 1 0.486106 0.213353 0.286341
14885 1 0.481763 0.149148 0.286359
14953 5 0.478635 0.211238 0.267172
14936 6 0.484986 0.146745 0.306855
14950 5 0.47461 0.147712 0.265957
15025 5 0.437571 0.215826 0.261783
14949 5 0.436545 0.146689 0.260712
14946 2 0.46181 0.220347 0.258981
15015 1 0.407534 0.243777 0.26458
14969 5 0.455022 0.244169 0.286958
14968 5 0.415366 0.244295 0.284664
15305 9 0.377697 0.159262 0.305921
14901 7 0.470593 0.14627 0.310723
12753 9 0.479935 0.202682 0.310981
24544 6 0.0875725 0.0290449 0.333518
24654 7 0.105952 0.0974506 0.334473
24655 7 0.0886801 0.0886437 0.326815
24614 6 0.0903876 0.0914394 0.334429
24820 9 0.0399396 0.0440511 0.336863
24550 1 0.0886353 0.0865815 0.354996
24571 2 0.0326146 0.0599167 0.351146
24576 3 0.0266346 0.0419621 0.34142
24577 5 0.0573701 0.0547196 0.35306
24639 2 0.0339108 0.109675 0.352344
24643 4 0.0324528 0.0850504 0.348806
24644 5 0.0169743 0.113934 0.360953
24645 5 0.0570646 0.117901 0.354079
24649 5 0.018504 0.0536749 0.360578
24568 1 0.0811971 0.0245626 0.353977
22022 5 0.117611 0.0561735 0.357128
22097 5 0.117832 0.11813 0.356058
24582 7 0.0775352 0.020059 0.329647
24581 7 0.0924261 0.0383721 0.327441
24819 9 0.0261794 0.0101059 0.34003
22267 9 0.121324 0.0416726 0.33518
24560 5 0.0823359 0.0846739 0.375563
14387 5 0.46932 0.178165 0.441256
24642 5 0.026737 0.122863 0.342418
20409 9 0.180128 0.019356 0.315276
22024 3 0.133928 0.109165 0.337612
22020 3 0.136188 0.0473096 0.338366
22633 7 0.17478 0.0510477 0.319392
22665 6 0.165152 0.0645947 0.320017
22634 7 0.154007 0.0595403 0.324653
22032 7 0.203489 0.0132278 0.331147
22021 4 0.134162 0.0227472 0.354387
20065 6 0.244694 0.0219189 0.322053
22631 7 0.183136 0.0864203 0.327129
22632 7 0.204588 0.0978313 0.332774
19714 9 0.228947 0.0719869 0.334036
22666 6 0.189819 0.0914254 0.334097
19468 3 0.230423 0.113682 0.337539
19398 3 0.22896 0.0574209 0.337651
19466 2 0.238873 0.11051 0.349318
19469 4 0.239385 0.0854685 0.352157
19393 2 0.237276 0.0608101 0.349603
19474 5 0.218884 0.0522017 0.356779
22016 1 0.187168 0.0888246 0.3544
22018 2 0.137932 0.0466544 0.35072
22023 5 0.161227 0.0549155 0.353586
22025 5 0.160436 0.118716 0.352292
21925 1 0.189706 0.0230511 0.355399