ITEM: TIMESTEP
578000
ITEM: NUMBER OF ATOMS
25520
ITEM: BOX BOUNDS pp pp pp
-3.8284205674150751e-01 6.0081385646742888e+01
-1.9384238469468917e+00 5.9108709120946308e+01
-1.2631824866092231e+01 1.1190755727210048e+02
ITEM: ATOMS id type xs ys zs
25182 6 0.0845224 0.024286 0.152617
25252 6 0.107954 0.0776431 0.15247
25214 3 0.0388757 0.0514875 0.157517
25287 5 0.0288408 0.0540657 0.177363
25283 5 0.0704796 0.118555 0.173119
25282 5 0.0293041 0.114352 0.178405
25281 4 0.0480546 0.0866376 0.167225
25277 2 0.0469966 0.111221 0.169541
25215 5 0.0689106 0.051903 0.171838
25209 2 0.0461306 0.0606819 0.168806
25188 1 0.0993922 0.0833442 0.171689
25458 9 0.0516511 0.0474471 0.153456
25206 1 0.0949334 0.0217426 0.173236
25292 7 0.118157 0.0649653 0.151942
25293 7 0.118462 0.0903666 0.151524
25220 7 0.0725743 0.029815 0.148726
25363 7 0.0177822 0.0982655 0.155404
25219 7 0.0950786 0.0360278 0.151644
25327 6 0.00518337 0.0872325 0.155804
25362 7 0.0155161 0.0752871 0.153099
12367 6 0.50014 0.237593 0.244942
2433 1 0.00177124 0.0224956 0.176323
22735 5 0.128758 0.11725 0.17312
22660 5 0.127624 0.0557103 0.172223
22905 9 0.139823 0.0289361 0.152385
22662 3 0.136118 0.114202 0.153976
22658 3 0.141984 0.0443451 0.153956
22656 2 0.147521 0.0469338 0.166368
20112 5 0.228135 0.0566091 0.172851
22663 5 0.169071 0.118646 0.16702
22654 1 0.193523 0.0871955 0.169846
22661 5 0.170213 0.0569144 0.16727
22659 4 0.148835 0.0222491 0.169388
22563 1 0.199543 0.0230735 0.172983
22629 6 0.199481 0.0325022 0.154328
22630 6 0.202428 0.0911916 0.149552
22667 7 0.193249 0.0986387 0.14483
22668 7 0.214032 0.102237 0.150831
20108 5 0.2304 0.119052 0.171787
22670 7 0.191875 0.0265657 0.147741
20036 3 0.243462 0.0538319 0.153612
20352 9 0.228149 0.0507348 0.152443
22657 2 0.144973 0.125443 0.164394
22669 7 0.18599 0.0415623 0.156578
20031 2 0.247925 0.0625175 0.165624
20106 3 0.250001 0.124391 0.153806
20104 2 0.249857 0.111907 0.164767
20107 4 0.24734 0.087442 0.165161
22906 9 0.139689 0.124343 0.147996
20353 9 0.258398 0.116623 0.148172
22517 7 0.256295 0.0307805 0.145518
20118 7 0.314517 0.0694762 0.153145
20117 7 0.314213 0.0941369 0.150758
20077 6 0.305004 0.0820327 0.153181
17480 3 0.338582 0.0508924 0.15659
17799 9 0.348519 0.0618252 0.153809
17478 2 0.347505 0.0435688 0.168058
20109 5 0.272157 0.118817 0.168717
17482 5 0.330254 0.0511071 0.176239
20037 5 0.269987 0.0557255 0.169236
20011 1 0.300023 0.0841696 0.172883
20028 1 0.293884 0.0219011 0.173467
17481 4 0.347105 0.0183988 0.170337
17560 5 0.330709 0.114915 0.17495
17484 3 0.343853 0.109047 0.155712
20003 6 0.293364 0.0103331 0.154507
17485 5 0.373079 0.111709 0.170721
17483 5 0.370898 0.0504542 0.170745
20042 7 0.285609 0.0120538 0.147484
22482 6 0.261255 0.0168997 0.141477
17479 2 0.350582 0.119617 0.167031
17800 9 0.355865 0.108511 0.151012
17489 7 0.41802 0.0639539 0.151554
17490 7 0.425236 0.0882125 0.155106
17451 6 0.412279 0.0790055 0.153218
14856 3 0.44007 0.0453055 0.15988
15246 9 0.445228 0.0307655 0.161062
14929 4 0.445755 0.0837339 0.168441
14926 2 0.448985 0.108752 0.169982
14851 2 0.447354 0.0588816 0.170514
14931 5 0.472802 0.11441 0.172895
14857 5 0.470915 0.0526213 0.173634
17476 1 0.396084 0.0816087 0.172514
14934 5 0.432028 0.0528109 0.179726
14930 5 0.429626 0.116623 0.17669
17384 1 0.402175 0.0204642 0.173462
17450 6 0.407551 0.0166056 0.153185
17492 7 0.411823 0.027267 0.148027
14848 1 0.496478 0.0215647 0.1781
14928 3 0.442902 0.120298 0.158639
17491 7 0.420387 0.00685025 0.153675
15031 7 0.416282 0.245725 0.243823
15247 9 0.45575 0.129037 0.156955
25280 5 0.0365397 0.12647 0.161199
25290 7 0.107677 0.148599 0.151112
2033 7 0.0393482 0.140789 0.134435
25253 6 0.0930073 0.154343 0.154228
2032 7 0.0489866 0.164668 0.138414
1995 6 0.0339221 0.154908 0.138787
25275 1 0.0901989 0.149529 0.174482
25278 8 0.0264528 0.148248 0.153853
22957 9 0.0866035 0.219763 0.154026
22732 3 0.100324 0.212931 0.15624
25285 4 0.031498 0.17089 0.162497
25359 5 0.0267025 0.183739 0.182079
25356 5 0.0687293 0.238115 0.17258
25354 4 0.0420172 0.209562 0.168207
25351 2 0.0440546 0.235185 0.168828
25286 5 0.0644128 0.177125 0.174684
25279 2 0.0415618 0.18525 0.171819
25259 1 0.0976644 0.21271 0.174852
25355 5 0.0280367 0.243548 0.176879
25394 6 0.075585 0.185289 0.137485
25291 7 0.0864895 0.162177 0.148
25432 7 0.0652548 0.197228 0.138238
25433 7 0.0880713 0.193238 0.139819
2104 7 0.0167445 0.203683 0.157733
25353 3 0.0410097 0.24679 0.157772
22726 8 0.130882 0.215199 0.152011
1962 7 0.145277 0.201662 0.133556
22741 7 0.220449 0.136617 0.148567
1963 7 0.139338 0.227733 0.131973
22740 7 0.211271 0.159918 0.151122
1927 6 0.13427 0.214653 0.136494
22730 5 0.126962 0.180513 0.175976
22700 6 0.207674 0.144471 0.150492
22636 1 0.199929 0.14902 0.170939
22729 4 0.141412 0.150301 0.163732
22733 4 0.139182 0.236238 0.160676
20188 7 0.211662 0.230611 0.156874
20189 7 0.21968 0.207863 0.154292
20148 6 0.206379 0.216278 0.154573
22728 5 0.140461 0.192897 0.158781
22725 2 0.144711 0.175326 0.166843
20178 5 0.229864 0.238321 0.177503
20183 5 0.230453 0.180943 0.174331
22723 1 0.193487 0.210837 0.174246
22731 5 0.168764 0.181386 0.170163
22734 5 0.168573 0.241552 0.173251
22807 5 0.129326 0.244484 0.18
20110 3 0.239298 0.174365 0.155828
20173 2 0.247654 0.235982 0.168703
20105 2 0.248303 0.186596 0.166067
20177 4 0.249354 0.211793 0.16436
22686 7 0.126664 0.0415163 0.248145
20354 9 0.247403 0.16163 0.154546
17555 4 0.348238 0.144572 0.165798
20102 1 0.29573 0.146794 0.173529
17554 3 0.346732 0.183194 0.157084
17801 9 0.34708 0.199103 0.158581
17558 3 0.333234 0.232197 0.156993
17552 2 0.349068 0.16968 0.167479
17556 5 0.330992 0.174952 0.175399
20111 5 0.272391 0.180981 0.168614
20084 1 0.301651 0.207985 0.17381
20179 5 0.270605 0.24278 0.172323
17631 5 0.330631 0.241082 0.176273
17557 5 0.371502 0.178704 0.171332
17559 5 0.369816 0.238234 0.167329
17553 2 0.345108 0.245456 0.166214
17802 9 0.337974 0.237433 0.150364
17564 7 0.381452 0.222879 0.153941
17563 7 0.376048 0.197954 0.15381
17565 7 0.414137 0.136821 0.153394
17566 7 0.396197 0.150319 0.147685
14938 7 0.473791 0.213665 0.141913
14937 7 0.452833 0.199938 0.14427
17525 6 0.402622 0.147642 0.154754
17459 1 0.400443 0.146757 0.175311
17526 6 0.388142 0.208712 0.152431
14899 6 0.4588 0.211757 0.139179
15248 9 0.4325 0.166377 0.154666
15002 3 0.441501 0.238295 0.154966
14932 3 0.443079 0.177279 0.15582
15000 2 0.449308 0.232171 0.166648
15003 4 0.447932 0.207172 0.169176
14927 2 0.447072 0.181639 0.167852
15005 5 0.472269 0.241395 0.168849
14933 5 0.47013 0.17448 0.171523
15004 5 0.430689 0.241897 0.174334
17550 1 0.39589 0.210469 0.172836
15008 5 0.430165 0.172633 0.175391
15249 9 0.448783 0.228771 0.149615
14924 1 0.496591 0.143247 0.174743
22829 7 0.0561108 0.250284 0.228255
25202 7 0.0828151 0.0146663 0.222768
25227 3 0.0610035 0.0203625 0.247116
22687 7 0.117785 0.0596979 0.240167
25471 9 0.0683343 0.00888156 0.244148
25198 5 0.092019 0.0822169 0.191262
25195 5 0.0932907 0.0246262 0.193441
25268 5 0.0537646 0.0897689 0.19668
25258 1 0.0226581 0.116134 0.196739
25207 1 0.0291237 0.0551083 0.195782
25191 2 0.0774697 0.0920187 0.200336
25263 4 0.0791339 0.117161 0.202141
25197 4 0.0735494 0.0774178 0.210094
25192 5 0.0723084 0.034825 0.210692
25196 3 0.0320963 0.0552242 0.215617
25190 8 0.0627086 0.0565614 0.219078
25510 9 0.0203106 0.0486606 0.220591
25517 7 0.0671118 0.062248 0.239873
25240 6 0.0763572 0.0551761 0.23292
22685 7 0.0830647 0.10361 0.220269
25506 7 0.0808112 0.039985 0.236194
22649 6 0.0869314 0.109166 0.22781
25194 5 0.0523197 0.0183415 0.196893
25189 2 0.0756788 0.0181884 0.201815
25308 6 0.0217913 0.115579 0.217684
25472 9 0.0582778 0.0994666 0.243624
25272 7 0.0322829 0.117883 0.223813
22635 1 0.123044 0.0552164 0.193801
25201 6 0.0117353 0.0491801 0.243821
22759 7 0.10839 0.118182 0.239711
25236 7 0.0233784 0.0377089 0.244969
2065 6 0.000174847 0.205598 0.156746
25271 7 0.0128652 0.102852 0.21956
22650 7 0.105584 0.0403831 0.217466
22683 6 0.11778 0.0492832 0.214415
25205 7 0.0125039 0.00489603 0.219517
22648 6 0.114548 0.0522272 0.247335
25309 7 0.0315033 0.119624 0.239098
25235 6 0.0882981 0.00283368 0.227709
22613 7 0.132577 0.00205226 0.245845
25231 3 0.0604594 0.0859846 0.248271
22717 6 0.115018 0.123122 0.246361
22651 7 0.126146 0.0565479 0.220461
25237 7 -0.00111642 0.0420895 0.240543
22958 9 0.120011 0.106666 0.217115
22684 7 0.0752659 0.104498 0.232066
1933 1 0.000960058 0.148831 0.176112
22518 7 0.254315 0.00609004 0.146359
22655 1 0.124214 0.116854 0.192137
20062 7 0.13852 0.0836585 0.238061
20023 6 0.135543 0.0771843 0.231515
20134 7 0.217417 0.0490182 0.242933
20061 7 0.150161 0.0723638 0.229294
22643 5 0.19025 0.0839 0.188192
22572 5 0.192837 0.0201677 0.193094
20083 1 0.221891 0.115389 0.191869
20029 1 0.2264 0.054551 0.193043
22642 5 0.149634 0.0796458 0.193293
20063 7 0.17449 0.0500781 0.220176
22637 2 0.174348 0.0787687 0.197141
22641 4 0.178966 0.0558254 0.201621
22565 2 0.175839 0.0298419 0.200665
22640 5 0.171633 0.0933109 0.206761
20060 6 0.223707 0.0548365 0.213808
20022 6 0.176928 0.060747 0.225582
20064 7 0.181071 0.0730816 0.220404
22647 5 0.152627 0.0238763 0.196681
20096 6 0.206331 0.0590453 0.246131
22571 3 0.179949 0.0212727 0.212745
22638 8 0.161418 0.113861 0.215256
22644 3 0.130959 0.114949 0.211454
17471 6 0.241436 0.0180771 0.227079
20135 7 0.195575 0.0603547 0.240802
22965 7 0.169318 0.0976167 0.234624
22577 7 0.145908 0.0361517 0.232607
20025 7 0.208191 0.0523205 0.21633
22688 6 0.171953 0.11252 0.23024
22612 6 0.152433 0.0224389 0.231923
22576 7 0.165721 0.0274678 0.228096
20024 7 0.233161 0.0436765 0.216933
20101 7 0.229064 0.0791122 0.226326
20130 6 0.229857 0.0944851 0.228478
22918 9 0.15477 0.0226017 0.246286
22931 9 0.183276 0.00580108 0.212313
20098 7 0.219962 0.105076 0.218148
20131 6 0.216159 0.103815 0.209624
17510 7 0.243248 0.0254509 0.234269
20132 7 0.210023 0.101246 0.242903
20097 6 0.202701 0.112919 0.247256
20099 7 0.201755 0.0962782 0.2081
20100 7 0.24484 0.100737 0.228084
22954 7 0.166656 0.126013 0.235343
20008 7 0.188502 0.00464819 0.244393
14952 3 0.458566 0.213802 0.248038
25457 9 0.0567781 0.00390752 0.156227
20133 7 0.192167 0.120523 0.242182
20366 9 0.259327 0.0983569 0.245848
20016 5 0.250411 0.0250555 0.196781
17509 7 0.256049 0.0175483 0.223792
17456 7 0.282302 0.0657124 0.244441
20095 5 0.252111 0.0825117 0.195228
20051 3 0.255852 0.0275194 0.24831
20020 5 0.29313 0.0812961 0.192438
20017 5 0.29079 0.0231698 0.194203
17477 1 0.326559 0.116707 0.194499
17458 1 0.322312 0.0509919 0.195462
17464 5 0.349151 0.086825 0.197206
20013 2 0.273793 0.0887172 0.200012
20379 9 0.278049 0.0883713 0.216795
20089 4 0.275056 0.114416 0.201341
20019 3 0.277223 0.0776759 0.211048
20378 9 0.274251 0.0464996 0.210616
17466 6 0.319584 0.0544747 0.216389
17493 7 0.317589 0.0670504 0.220811
17494 7 0.304679 0.0471511 0.216587
14960 7 0.335332 0.0826022 0.237557
14918 6 0.322645 0.0848733 0.232259
14959 7 0.329938 0.0935032 0.226611
17469 5 0.350606 0.0169733 0.199927
20014 3 0.277574 0.0298976 0.211679
20012 2 0.271579 0.0163836 0.201345
17503 6 0.29492 0.056136 0.245178
17499 3 0.356338 0.0899635 0.246193
17578 6 0.267951 0.120557 0.228804
17457 7 0.304415 0.0614668 0.239501
17813 9 0.359461 0.1065 0.246205
17463 4 0.371195 0.0518744 0.200083
14847 7 0.365348 0.0617015 0.23196
17475 7 0.301002 0.00867746 0.217266
14846 7 0.365313 0.0375355 0.229904
17508 6 0.333623 0.121432 0.214623
20365 9 0.271015 0.0320514 0.246028
17548 7 0.267751 0.133173 0.223424
17460 2 0.371701 0.0769698 0.199962
17583 7 0.311327 0.107581 0.24061
17472 7 0.348806 0.123193 0.213915
17386 2 0.373734 0.0271061 0.200094
14878 6 0.373515 0.0505333 0.228439
17825 9 0.381404 0.0274656 0.216572
17391 3 0.386443 0.0194625 0.210497
17826 9 0.376738 0.0696447 0.216241
17462 3 0.379547 0.0825508 0.211854
15272 9 0.485917 0.0124333 0.221502
14840 5 0.493473 0.084198 0.196465
17465 5 0.390416 0.0809297 0.191758
14906 1 0.42118 0.112489 0.196834
17392 5 0.390398 0.0214406 0.190804
14849 1 0.425918 0.0523958 0.198534
14917 5 0.451553 0.0879414 0.199682
14837 5 0.449876 0.019839 0.202505
14911 4 0.476707 0.11835 0.201947
14834 2 0.47525 0.093122 0.20327
14839 3 0.480343 0.0904976 0.21515
14955 6 0.414796 0.058522 0.217318
15273 9 0.476406 0.102724 0.219653
14922 7 0.401505 0.0601439 0.221504
14923 7 0.427655 0.0594251 0.222298
15308 7 0.466829 0.076832 0.227849
14884 6 0.460103 0.0609041 0.228713
15297 7 0.47244 0.0501332 0.225501
15303 9 0.40459 0.0506172 0.238176
14868 8 0.446622 0.0538199 0.242469
14835 3 0.483867 0.025766 0.216691
14874 3 0.416056 0.0529077 0.244621
14833 2 0.473888 0.0165043 0.205489
14914 6 0.413644 0.113951 0.216462
14838 5 0.490314 0.0233614 0.197143
14951 6 0.408467 0.108152 0.242971
14941 7 0.404289 0.101144 0.214336
12366 6 0.473531 0.12011 0.230425
14905 7 0.413841 0.0934043 0.242965
14904 7 0.406032 0.10932 0.235338
12408 7 0.466498 0.124249 0.236806
14942 7 0.401879 0.125181 0.217191
12407 7 0.472031 0.133521 0.225791
12352 7 0.485154 0.17417 0.241767
14985 4 0.478831 0.240612 0.202459
14916 5 0.491581 0.20835 0.192783
25270 6 0.0466281 0.121609 0.237385
25512 9 0.0108436 0.17897 0.237821
25310 7 0.0532322 0.128739 0.244079
25484 9 0.08021 0.131411 0.219202
22757 7 0.120029 0.181861 0.239982
25267 5 0.0910042 0.213153 0.194458
25265 5 0.0899162 0.153928 0.195685
25303 3 0.0185663 0.180616 0.245208
25260 2 0.0746263 0.141563 0.20332
25264 5 0.0513063 0.150235 0.200455
25332 1 0.020648 0.242916 0.199351
25276 1 0.0278295 0.179662 0.199068
25342 5 0.0503822 0.212242 0.203013
25337 4 0.0757559 0.243187 0.205549
25261 2 0.0749357 0.218198 0.203693
25266 3 0.0850452 0.209293 0.214199
25262 3 0.0794532 0.145622 0.215418
25485 9 0.0920261 0.195211 0.213315
22720 7 0.107782 0.159629 0.216111
25377 6 0.0219503 0.182525 0.218487
25507 7 0.0720931 0.196893 0.229788
25518 7 0.0730496 0.169119 0.227665
25314 6 0.0639653 0.181233 0.231164
25297 8 0.0495596 0.179777 0.245149
22830 7 0.0736815 0.236555 0.223147
22751 3 0.117759 0.24423 0.244878
22756 6 0.117742 0.173048 0.214949
22758 7 0.0970013 0.173897 0.241056
22718 6 0.10885 0.179468 0.245476
22825 6 0.119094 0.245373 0.217053
25348 7 0.0355965 0.185902 0.221899
25347 7 0.0113279 0.196261 0.218252
25345 7 0.0160657 0.241149 0.226257
22960 9 0.106712 0.242351 0.238536
22791 6 0.0708998 0.24616 0.229511
22706 1 0.120785 0.179047 0.194845
22795 7 0.106513 0.236043 0.215442
22760 7 0.130067 0.128193 0.244686
22679 3 0.159201 0.141606 0.249993
22719 7 0.128512 0.173021 0.221116
22724 1 0.127899 0.241264 0.198023
20167 7 0.202576 0.225355 0.212731
22646 5 0.192228 0.145861 0.191092
22713 5 0.192228 0.212487 0.194996
20103 1 0.224568 0.175343 0.193943
22716 5 0.150368 0.146672 0.192324
20154 1 0.221963 0.239707 0.195013
22722 7 0.151342 0.172179 0.240582
22645 4 0.170068 0.13767 0.207769
22712 5 0.152127 0.210471 0.19898
22639 2 0.171266 0.152523 0.197868
22708 2 0.174531 0.202212 0.202463
22711 4 0.172099 0.177377 0.200455
22710 3 0.179907 0.205629 0.214441
22932 9 0.184431 0.192108 0.217943
20204 6 0.214231 0.234708 0.215639
20092 3 0.230509 0.176253 0.212999
22721 7 0.156858 0.194025 0.235879
20406 9 0.220439 0.183542 0.218993
22745 8 0.14795 0.243614 0.243231
20166 6 0.189814 0.16799 0.22419
20206 7 0.177089 0.168069 0.228694
22755 6 0.151218 0.179623 0.233631
20205 7 0.185982 0.156375 0.217438
22762 6 0.158706 0.240846 0.228488
20169 7 0.206835 0.184162 0.237775
20203 6 0.207547 0.18927 0.2451
14994 7 0.410433 0.244889 0.218379
20170 7 0.219995 0.199507 0.245309
20168 7 0.204033 0.244933 0.219323
22966 7 0.159005 0.225058 0.224999
17504 3 0.353728 0.140704 0.247612
17549 7 0.278653 0.125558 0.234485
17617 7 0.259128 0.228385 0.224941
17582 7 0.324308 0.13106 0.243895
17473 7 0.328682 0.137021 0.216078
17580 7 0.318422 0.243846 0.23724
17544 6 0.310545 0.12168 0.245045
17581 7 0.292866 0.24786 0.237191
17545 6 0.30631 0.24778 0.241687
20090 5 0.249553 0.139142 0.192453
20367 9 0.269961 0.135492 0.246675
20164 5 0.250535 0.206325 0.196062
17651 6 0.265593 0.240318 0.228684
20368 9 0.261489 0.219461 0.241172
20091 5 0.28981 0.146765 0.190691
20094 5 0.292622 0.206822 0.192284
17531 1 0.322863 0.177813 0.195527
17551 1 0.327069 0.23928 0.194998
17538 5 0.353173 0.201493 0.194849
17543 5 0.352846 0.147647 0.198187
20085 2 0.271974 0.138226 0.197775
20086 8 0.26073 0.175974 0.215899
20087 2 0.273687 0.212994 0.199622
20159 4 0.276392 0.236918 0.202613
20088 5 0.268278 0.154792 0.206742
20093 4 0.274428 0.200693 0.210143
17547 7 0.307672 0.174701 0.221969
17540 3 0.330832 0.236667 0.213794
17579 6 0.319221 0.171644 0.215843
17546 7 0.331403 0.176102 0.220358
20136 6 0.274474 0.172242 0.229955
20413 7 0.27655 0.188235 0.234192
20402 7 0.265311 0.16513 0.236076
17534 8 0.360741 0.239433 0.216488
17814 9 0.356023 0.150058 0.241329
20127 3 0.256698 0.20813 0.246411
14996 7 0.358334 0.191186 0.235939
15026 6 0.360327 0.184057 0.228989
20123 3 0.262041 0.147674 0.249282
17571 3 0.356953 0.215085 0.245583
17815 9 0.366413 0.227041 0.24555
14997 7 0.362078 0.194352 0.223463
17536 5 0.36954 0.216658 0.209303
17827 9 0.370955 0.156652 0.219799
14992 6 0.40585 0.234271 0.24668
17533 2 0.375176 0.200984 0.199814
17854 9 0.318282 0.247512 0.215945
12353 7 0.492054 0.198154 0.242647
12399 6 0.49835 0.183427 0.243682
17861 7 0.382185 0.234795 0.234577
17461 2 0.374916 0.151378 0.203199
17467 3 0.374843 0.144471 0.215236
12291 6 0.437537 0.15483 0.230108
14910 3 0.474914 0.154459 0.214635
14912 5 0.45107 0.149071 0.198939
12406 7 0.485838 0.231711 0.242159
14958 7 0.390129 0.178226 0.237353
15030 7 0.415778 0.221924 0.247814
15262 9 0.46275 0.198045 0.24709
14913 5 0.493795 0.150261 0.1966
14920 7 0.445394 0.195002 0.213246
14991 5 0.452174 0.209251 0.198472
14925 1 0.427058 0.177682 0.196962
14979 1 0.422835 0.24072 0.194325
15274 9 0.482487 0.168507 0.213728
17468 5 0.393766 0.143124 0.196256
14921 7 0.433802 0.182942 0.22357
14915 3 0.480168 0.200599 0.211572
12329 7 0.429721 0.141171 0.229008
15027 6 0.423548 0.24105 0.214924
15261 9 0.452175 0.153723 0.242641
14908 2 0.473159 0.143352 0.202853
14947 3 0.462268 0.157058 0.248618
17584 6 0.376979 0.247709 0.229283
17537 4 0.378439 0.177324 0.203061
17539 5 0.394773 0.209236 0.193388
14919 6 0.403623 0.180104 0.242036
14995 7 0.425601 0.226659 0.217649
15275 9 0.496073 0.200429 0.212962
14909 2 0.475786 0.214675 0.201584
12328 7 0.447784 0.154377 0.224564
14957 7 0.415044 0.170561 0.238723
14956 6 0.431669 0.187487 0.215989
25459 9 0.0253828 0.250362 0.156846
17618 7 0.273735 0.249867 0.223778
22727 2 0.144979 0.24941 0.170744
20041 7 0.283524 0.00250361 0.159354
14844 7 0.407451 0.00164125 0.218274
22652 7 0.136308 0.0044127 0.2211
14875 4 0.456043 0.0768142 0.249841
25178 3 0.0226239 0.0557423 0.30493
25245 3 0.0163921 0.111927 0.304579
25251 5 0.00989841 0.0530104 0.285708
25246 4 0.0266191 0.0857236 0.289746
25243 2 0.0268784 0.110928 0.292822
25224 1 0.0825247 0.088965 0.288547
25179 5 0.0528066 0.0557432 0.291633
25173 2 0.0285127 0.0616814 0.29278
25170 1 0.0759484 0.0254788 0.288913
25232 5 0.0749853 0.0852248 0.267964
25230 5 0.075173 0.0292649 0.266885
22671 1 0.104343 0.0552393 0.267375
25171 1 0.00910204 0.0565882 0.264179
25229 5 0.0345565 0.0248635 0.262717
25306 5 0.0337368 0.0869876 0.263986
25226 2 0.0575749 0.0933993 0.260285
25225 2 0.0580647 0.0177435 0.259649
25496 9 0.0103748 0.0454016 0.305047
25288 6 0.0830868 0.085511 0.308598
22619 1 0.109315 0.119296 0.266718
25300 4 0.0595727 0.118958 0.259901
25248 5 0.0515053 0.115098 0.290368
22699 5 0.110857 0.115098 0.288727
22624 5 0.109483 0.0583116 0.288608
25247 5 0.00952326 0.123582 0.286398
25218 6 0.0728365 0.019289 0.309353
25497 9 0.0143665 0.0964865 0.306914
25257 7 0.0951165 0.0761369 0.3105
25183 7 0.0744992 0.00412334 0.310529
25294 1 0.00296619 0.117939 0.265121
25495 9 0.0365689 0.00840803 0.307992
22626 3 0.124958 0.125458 0.30767
16214 7 0.425144 0.174106 0.495856
22944 9 0.121085 0.11099 0.30997
22622 3 0.125502 0.0605097 0.308313
22623 4 0.126772 0.0263082 0.297759
22681 5 0.134739 0.0306506 0.267361
22620 2 0.128991 0.0519199 0.296329
19999 4 0.219577 0.0463952 0.30122
19993 2 0.227192 0.0633851 0.293466
20068 2 0.227572 0.11326 0.296755
20071 4 0.224249 0.0873224 0.297741
22625 5 0.152213 0.0566936 0.29269
22627 5 0.152119 0.119507 0.290969
22618 1 0.177685 0.0888514 0.289935
20076 5 0.211851 0.0593596 0.283819
22600 1 0.182259 0.0263378 0.290335
22609 5 0.174764 0.0246489 0.270661
22678 5 0.174377 0.0880381 0.269408
19990 1 0.208499 0.0565708 0.265737
22677 5 0.13329 0.087907 0.266005
20129 5 0.233571 0.0864809 0.264673
20053 5 0.233425 0.0268589 0.264378
22602 2 0.157485 0.0319382 0.262504
22673 2 0.155664 0.0817638 0.261441
22676 4 0.158349 0.0562044 0.258316
20119 1 0.204583 0.118567 0.26844
20072 5 0.211903 0.121213 0.288233
22665 6 0.185437 0.0917085 0.309722
19992 8 0.214526 0.024641 0.310694
19998 3 0.184549 0.0166416 0.309245
19994 5 0.224293 0.00493934 0.301505
22608 3 0.157247 0.0151357 0.253076
22634 7 0.199805 0.082296 0.309731
22545 2 0.128289 0.00228088 0.294112
22621 2 0.128827 0.125393 0.295112
24819 9 0.0158889 0.000331741 0.340176
20000 5 0.252446 0.0597284 0.29159
17448 5 0.351565 0.119665 0.289608
17440 8 0.315919 0.087327 0.310203
17446 3 0.284702 0.0877219 0.308649
17442 5 0.323059 0.0656511 0.301263
17447 4 0.320326 0.11021 0.301823
17443 4 0.332154 0.0269944 0.296787
17439 2 0.330225 0.0508171 0.292418
20048 1 0.28314 0.0879432 0.289793
19989 1 0.278821 0.0267329 0.287866
17445 5 0.352583 0.0594636 0.289175
17444 5 0.313551 0.0539435 0.283426
20057 5 0.274854 0.0866391 0.270927
17495 1 0.303924 0.0547331 0.265555
17506 5 0.334628 0.0249889 0.267281
20054 5 0.275314 0.0247833 0.266271
17438 1 0.306832 0.120734 0.265297
17501 5 0.332494 0.0905413 0.262752
17421 2 0.355919 0.0322006 0.262025
20050 2 0.257888 0.0951828 0.262533
20049 2 0.255414 0.0182786 0.25963
17497 2 0.353455 0.0823408 0.257986
20040 6 0.279206 0.0276142 0.309488
17500 4 0.354157 0.0567618 0.257164
20073 5 0.251612 0.118876 0.293726
20124 4 0.255644 0.120088 0.264581
17524 5 0.311562 0.122744 0.283343
17502 5 0.373373 0.0888957 0.26462
20056 3 0.266728 0.0886163 0.250992
17427 4 0.352698 0.0140794 0.253159
17428 5 0.377325 0.0294005 0.268961
17369 2 0.331257 0.00119849 0.29554
17437 1 0.37436 0.089105 0.285386
14822 3 0.418435 0.0552292 0.303516
14891 4 0.42711 0.0907112 0.293883
14817 2 0.426907 0.0648921 0.292687
14887 2 0.427241 0.114885 0.290217
14823 5 0.450176 0.0563179 0.289551
17418 1 0.383917 0.0250345 0.289203
14893 5 0.450853 0.122318 0.287392
14897 5 0.409765 0.0574768 0.284214
14892 5 0.409876 0.115319 0.28142
14866 1 0.478623 0.0893473 0.28836
14814 1 0.474073 0.0263778 0.286654
14873 5 0.468803 0.0235187 0.267264
14876 5 0.475871 0.0889565 0.266731
14815 1 0.410028 0.0551581 0.264767
14943 1 0.404976 0.116484 0.263095
14954 5 0.435667 0.082019 0.264173
17412 6 0.390909 0.0206906 0.309867
14869 2 0.456231 0.0919623 0.259348
14872 5 0.42692 0.0132634 0.264551
14867 2 0.450292 0.0148412 0.260184
14948 4 0.454756 0.117771 0.256526
14860 6 0.481442 0.0891059 0.309445
17380 7 0.401328 0.0081224 0.30991
14870 5 0.45277 0.0326292 0.251722
15286 9 0.418539 0.0662894 0.309173
17379 7 0.400125 0.0336186 0.30951
16139 7 0.437077 0.00436038 0.487505
25255 7 0.0955418 0.132812 0.311789
25296 2 0.0568737 0.142917 0.263364
25241 1 0.0746159 0.151193 0.290921
25249 3 0.0193914 0.180336 0.302919
25360 6 0.0887782 0.212497 0.307506
25320 4 0.0307489 0.214961 0.292622
25317 2 0.0291436 0.240719 0.292416
25295 1 0.0796938 0.214639 0.287646
25250 5 0.0499308 0.180555 0.289468
25244 2 0.0276791 0.190183 0.292067
25325 5 0.011565 0.185107 0.283023
25302 5 0.0740533 0.147249 0.272095
25305 5 0.0730174 0.21596 0.26964
22742 1 0.101673 0.180666 0.266291
25301 5 0.0323545 0.148143 0.266801
25242 1 0.00830426 0.182434 0.263913
25376 5 0.0300648 0.221836 0.264908
25298 2 0.0552486 0.221809 0.261574
25289 6 0.0815852 0.140299 0.310592
25498 9 0.0229601 0.191337 0.308702
25371 4 0.0582255 0.245901 0.258109
22690 1 0.107322 0.243733 0.262775
22695 5 0.108646 0.185857 0.28692
22773 5 0.110429 0.246873 0.282477
14607 9 0.423868 0.00191131 0.336016
25299 5 0.057376 0.157862 0.253633
25499 9 0.0365435 0.248141 0.308314
25330 7 0.0971203 0.226253 0.307
25366 1 0.000486876 0.245884 0.264715
25331 7 0.101103 0.202924 0.308617
25304 4 0.0561079 0.203647 0.253147
22697 3 0.12055 0.24302 0.302269
25321 5 0.0108972 0.248741 0.284392
22693 3 0.117209 0.174596 0.306394
22945 9 0.113275 0.159475 0.308145
14330 5 0.449762 0.210625 0.462833
22920 9 0.164033 0.127075 0.251619
20070 3 0.219897 0.122968 0.307613
22747 5 0.156024 0.223184 0.25272
22694 4 0.124196 0.150181 0.291569
22691 2 0.125987 0.175115 0.294445
22748 4 0.158671 0.179917 0.258142
22674 2 0.156663 0.154707 0.260471
22754 5 0.133406 0.150364 0.264724
20202 5 0.233448 0.210579 0.262467
22672 1 0.18079 0.152855 0.289353
20142 4 0.230397 0.212544 0.290791
20147 5 0.209021 0.179779 0.288018
22696 5 0.15007 0.181445 0.292382
20074 3 0.226579 0.184348 0.305851
20069 2 0.229423 0.188282 0.293454
22689 1 0.173855 0.212859 0.286657
20392 9 0.229326 0.196025 0.309968
20139 2 0.229086 0.238135 0.291824
20067 1 0.208445 0.182227 0.265791
22680 5 0.17552 0.148523 0.268679
22750 5 0.173164 0.210072 0.268884
22749 5 0.131244 0.20704 0.265298
20125 5 0.232635 0.153668 0.263998
22744 2 0.154553 0.205137 0.26142
22737 6 0.181003 0.215895 0.306358
22736 6 0.18769 0.156837 0.30987
22698 5 0.15072 0.241576 0.288196
20190 1 0.203358 0.24386 0.263994
20143 5 0.20993 0.246565 0.285123
20393 9 0.230924 0.232323 0.308439
20141 3 0.22234 0.242209 0.303954
22705 7 0.198376 0.167939 0.30734
22703 7 0.194657 0.224811 0.307656
22704 7 0.196603 0.143451 0.309835
20144 5 0.253097 0.246449 0.289693
22702 7 0.177198 0.209072 0.313137
20075 5 0.251282 0.177041 0.289699
17441 2 0.328007 0.125548 0.292975
20082 7 0.25389 0.160271 0.310976
17572 4 0.359632 0.181136 0.25482
20126 5 0.273446 0.154112 0.268221
20066 1 0.275422 0.14961 0.290154
17516 2 0.327367 0.174818 0.294176
17518 3 0.321168 0.184336 0.306028
20114 6 0.281219 0.212407 0.307015
17519 4 0.327391 0.149756 0.295998
17521 5 0.349444 0.182193 0.289683
20120 1 0.280538 0.211389 0.28585
17520 5 0.308809 0.182572 0.286398
17595 5 0.310696 0.242012 0.281235
17567 1 0.301847 0.181692 0.265503
20128 5 0.272536 0.211119 0.266197
17577 5 0.331914 0.15823 0.261654
17573 5 0.330613 0.212461 0.260723
17498 2 0.356085 0.156361 0.258018
20121 2 0.255302 0.145079 0.261241
17569 2 0.35404 0.206745 0.257417
20122 2 0.254637 0.218298 0.257812
20196 4 0.256953 0.243669 0.257711
20113 6 0.2646 0.148417 0.309905
17523 5 0.349879 0.239765 0.288055
17515 1 0.306357 0.244791 0.261861
17522 3 0.316744 0.234532 0.299921
17839 9 0.31025 0.195407 0.305643
20079 7 0.2928 0.222451 0.310024
20081 7 0.25399 0.136034 0.307602
17840 9 0.326517 0.221738 0.301918
17505 5 0.374417 0.151206 0.266058
17574 5 0.371077 0.214025 0.265818
15305 9 0.371473 0.149034 0.312368
17452 7 0.326988 0.134985 0.312852
14966 3 0.425039 0.243586 0.306328
17514 1 0.373046 0.212044 0.28629
14890 5 0.419647 0.129563 0.298773
17561 6 0.381092 0.210577 0.306482
15020 4 0.454273 0.24275 0.261149
14945 2 0.457265 0.141875 0.258353
14886 1 0.408689 0.179888 0.26258
14894 3 0.382451 0.15191 0.306187
14972 5 0.41032 0.182097 0.281058
14896 5 0.450165 0.184427 0.28754
14888 8 0.413123 0.150756 0.307849
12342 3 0.485318 0.209089 0.306975
14895 4 0.419662 0.172958 0.299094
14964 2 0.426411 0.237175 0.294038
14967 4 0.422933 0.212716 0.294089
14889 2 0.426358 0.188433 0.290087
17496 1 0.380607 0.150337 0.285947
14944 1 0.482023 0.211149 0.28824
14885 1 0.476929 0.150927 0.287722
14953 5 0.47355 0.206458 0.267024
14936 6 0.478237 0.155112 0.30821
14950 5 0.472665 0.148659 0.267024
15025 5 0.432325 0.207735 0.262683
14949 5 0.432898 0.151342 0.259992
14946 2 0.455016 0.217249 0.260542
15015 1 0.401892 0.242424 0.265916
14969 5 0.449198 0.243566 0.289911
14968 5 0.406689 0.248106 0.287453
17529 7 0.397105 0.213716 0.306313
14900 7 0.463281 0.1534 0.310785
25256 7 0.0704676 0.0766497 0.311377
24544 6 0.0877501 0.0379944 0.335217
24654 7 0.104156 0.0988737 0.335033
24655 7 0.0857493 0.0862155 0.328717
24614 6 0.0920867 0.0885633 0.335822
24820 9 0.0375832 0.0554548 0.334351
24550 1 0.0870402 0.0869179 0.356136
24571 2 0.0324269 0.0643068 0.350512
24576 3 0.0282611 0.0493869 0.340599
24577 5 0.057346 0.0578101 0.353067
24639 2 0.0340057 0.114104 0.351266
24643 4 0.0312497 0.0899618 0.347757
24644 5 0.0176196 0.117772 0.36094
24645 5 0.0579188 0.120282 0.354064
24649 5 0.0175149 0.0569629 0.35955
24568 1 0.0816573 0.0252746 0.354862
22022 5 0.117354 0.057872 0.356557
22097 5 0.1163 0.117404 0.355179
24582 7 0.07936 0.0497249 0.331756
24581 7 0.103139 0.0440894 0.334994
25186 7 0.0461455 0.0782431 0.324908
25217 6 0.049818 0.0643858 0.323126
25185 7 0.039105 0.0596243 0.317734
25184 7 0.0761843 0.0246936 0.316716
22266 9 0.126184 0.0152879 0.335454
14649 9 0.460506 0.206049 0.487413
22943 9 0.125023 0.047675 0.312938
20391 9 0.214394 0.110511 0.312145
22267 9 0.126316 0.0674412 0.336281
20409 9 0.175012 0.00880751 0.314787
22024 3 0.131309 0.111452 0.336443
22032 7 0.178317 0.0454418 0.336358
22633 7 0.176353 0.0887136 0.316588
22020 3 0.134954 0.0536857 0.337883
22021 4 0.138968 0.0266912 0.352415
20065 6 0.23289 0.0300293 0.322885
22631 7 0.17173 0.107714 0.332921
22632 7 0.163416 0.084697 0.332645
19714 9 0.229486 0.0808598 0.336652
22666 6 0.177314 0.0931288 0.33325
19468 3 0.234658 0.111789 0.33678
19398 3 0.229709 0.0649338 0.338794
19466 2 0.237746 0.111989 0.349421
19469 4 0.237245 0.0876555 0.353105
19393 2 0.236254 0.0621874 0.350493
19474 5 0.218435 0.052989 0.357474
22016 1 0.183946 0.0891371 0.354625
22018 2 0.137922 0.0519735 0.350452
22023 5 0.158967 0.0606829 0.355401
22025 5 0.156206 0.117886 0.352452
21925 1 0.188564 0.0253628 0.35654
21991 6 0.190877 0.035317 0.336989
20416 7 0.234867 0.0464484 0.325823
20415 7 0.227762 0.0215531 0.330249