ITEM: TIMESTEP
198000
ITEM: NUMBER OF ATOMS
25520
ITEM: BOX BOUNDS pp pp pp
-3.5545660513618121e-01 6.0054000195135224e+01
-1.9107743859507074e+00 5.9081059659951514e+01
-1.2575418502327686e+01 1.1185115090833207e+02
ITEM: ATOMS id type xs ys zs
25182 6 0.115514 0.0101656 0.150499
25252 6 0.113462 0.0803847 0.149663
25214 3 0.042951 0.0404783 0.157059
25287 5 0.0382936 0.0524228 0.175919
25283 5 0.0815899 0.110301 0.168735
25282 5 0.0392288 0.111021 0.175425
25281 4 0.0519044 0.0819306 0.163156
25277 2 0.0559912 0.105756 0.166351
25215 5 0.0776159 0.0516557 0.168574
25209 2 0.0532595 0.056215 0.166437
25188 1 0.110139 0.0797751 0.170914
25458 9 0.0518583 0.0280522 0.156076
25206 1 0.104973 0.021051 0.170483
25220 7 0.10408 0.00330819 0.146131
2433 1 0.0102517 0.0196992 0.174151
25382 7 -0.00287989 0.238289 0.241825
1949 1 0.0038947 0.0825581 0.173606
25292 7 0.122594 0.0921184 0.146976
25293 7 0.122601 0.0674309 0.147754
22735 5 0.139026 0.114475 0.171316
22660 5 0.143117 0.0522264 0.172114
22905 9 0.143106 0.0345397 0.14963
22662 3 0.150383 0.109884 0.151325
22658 3 0.152114 0.0466439 0.151929
22656 2 0.159679 0.0429469 0.164044
20108 5 0.238878 0.114627 0.168139
20112 5 0.238885 0.0508942 0.171298
22663 5 0.17823 0.113613 0.166077
22654 1 0.204712 0.0836566 0.17093
22661 5 0.182211 0.0535276 0.166601
22669 7 0.229281 0.0224637 0.150237
22659 4 0.160022 0.0188464 0.167904
22563 1 0.210342 0.0202528 0.171868
22629 6 0.21576 0.0147017 0.15121
22906 9 0.162706 0.106313 0.147343
22657 2 0.15506 0.120419 0.162374
20036 3 0.254184 0.0414534 0.152618
20353 9 0.255174 0.104283 0.143821
20106 3 0.252008 0.115244 0.149346
20107 4 0.254341 0.0805274 0.161113
20031 2 0.256399 0.0556168 0.163063
20104 2 0.25692 0.105817 0.160784
20352 9 0.266233 0.0300174 0.152276
20118 7 0.327295 0.0861901 0.146352
20117 7 0.325181 0.0621399 0.1464
20077 6 0.316148 0.0752718 0.147378
17480 3 0.35775 0.0476783 0.151412
17799 9 0.369311 0.0562264 0.148458
17484 3 0.351565 0.104157 0.150559
17478 2 0.361025 0.0426782 0.163806
20109 5 0.28068 0.111523 0.163598
17482 5 0.340841 0.0498558 0.170547
20037 5 0.279781 0.0518488 0.167335
20011 1 0.310266 0.0809574 0.167371
20028 1 0.305584 0.0184525 0.169696
17481 4 0.364376 0.017834 0.164856
20003 6 0.296277 0.0174317 0.150772
17560 5 0.336417 0.118438 0.168116
17479 2 0.355696 0.121169 0.160238
17800 9 0.357309 0.110567 0.144134
17413 7 0.374141 0.0269489 0.14247
17414 7 0.375104 0.000328755 0.14291
20041 7 0.287067 0.0054243 0.148346
20042 7 0.300713 0.02275 0.144321
17378 6 0.381389 0.013686 0.139769
17483 5 0.383045 0.0537436 0.166085
17485 5 0.378824 0.113567 0.165042
17490 7 0.433144 0.082382 0.149148
17489 7 0.415819 0.0950647 0.142569
17451 6 0.416865 0.0828179 0.147443
14856 3 0.453386 0.0466568 0.153689
15246 9 0.460651 0.0527464 0.148177
14929 4 0.455931 0.0837666 0.162322
14926 2 0.459556 0.108682 0.16234
14851 2 0.458531 0.0592418 0.164696
14931 5 0.482156 0.114457 0.166709
14857 5 0.48195 0.0547908 0.168989
17476 1 0.406394 0.0853345 0.16708
14934 5 0.442468 0.0545312 0.173908
14930 5 0.438918 0.119183 0.168684
17384 1 0.41361 0.0202038 0.171663
17450 6 0.417171 0.0145742 0.151895
17491 7 0.427357 0.0270806 0.148525
17492 7 0.404999 0.014819 0.146713
14928 3 0.459486 0.116882 0.150329
14861 7 0.494289 0.0115802 0.144963
15272 9 0.498915 0.00898899 0.213994
2065 6 0.0055807 0.203827 0.153396
25280 5 0.0491276 0.121767 0.15764
25284 3 0.0101115 0.143842 0.154001
25291 7 0.112265 0.144512 0.145048
25290 7 0.091053 0.132635 0.150185
2033 7 0.0365462 0.145112 0.129449
1995 6 0.0495798 0.146403 0.135194
25253 6 0.0996119 0.144621 0.151373
2032 7 0.0592571 0.131884 0.133701
25275 1 0.105845 0.145045 0.171563
25278 8 0.039962 0.144961 0.150484
22957 9 0.0949944 0.194014 0.147717
22732 3 0.105769 0.205531 0.150983
25285 4 0.0480384 0.167472 0.15814
25359 5 0.0407254 0.17627 0.176092
25356 5 0.0802278 0.240436 0.168909
25354 4 0.0543507 0.208592 0.165576
25351 2 0.0562626 0.234479 0.166805
25286 5 0.080705 0.174908 0.168978
25279 2 0.056548 0.182233 0.167109
25259 1 0.110273 0.209102 0.170891
25355 5 0.0398903 0.241361 0.174975
25433 7 0.0380258 0.191369 0.132136
25394 6 0.0282385 0.203471 0.13225
25432 7 0.0325012 0.211357 0.138447
2104 7 0.00978715 0.200178 0.146246
1933 1 0.011783 0.145329 0.173696
2017 1 0.00535661 0.206368 0.173831
25353 3 0.0503873 0.247779 0.156758
1962 7 0.150133 0.204788 0.127673
1927 6 0.138424 0.213957 0.131672
22668 7 0.142924 0.136689 0.14035
22630 6 0.133871 0.149799 0.138604
1963 7 0.143778 0.2309 0.129715
22726 8 0.135165 0.210258 0.147031
22730 5 0.138842 0.177987 0.172545
22740 7 0.226272 0.133304 0.148002
22667 7 0.141273 0.161366 0.144243
22700 6 0.214403 0.14463 0.146726
22636 1 0.208879 0.143291 0.168
22729 4 0.154214 0.14649 0.160751
22733 4 0.144215 0.231458 0.15615
20188 7 0.188044 0.184373 0.152654
20189 7 0.206414 0.186879 0.143482
22741 7 0.225632 0.15773 0.14581
20148 6 0.19881 0.195091 0.149312
22728 5 0.14635 0.186441 0.153206
22725 2 0.153386 0.171362 0.162739
20178 5 0.236832 0.236319 0.172029
20183 5 0.238019 0.174634 0.172116
22723 1 0.201387 0.205934 0.168722
22731 5 0.177102 0.177961 0.164258
22734 5 0.17844 0.237708 0.16824
22807 5 0.140406 0.243297 0.175015
20110 3 0.250178 0.169383 0.152027
22727 2 0.155153 0.245572 0.165501
20177 4 0.252762 0.207019 0.161508
20354 9 0.26319 0.161146 0.150238
20173 2 0.25362 0.23243 0.163107
20105 2 0.254885 0.181583 0.163122
17555 4 0.355788 0.146074 0.15691
20102 1 0.303772 0.143365 0.168028
17554 3 0.353351 0.184637 0.148444
17801 9 0.360742 0.178081 0.142542
17558 3 0.34623 0.235364 0.150117
17552 2 0.35672 0.171118 0.15888
17556 5 0.338614 0.17802 0.167256
20111 5 0.278513 0.176041 0.166348
20084 1 0.309025 0.207242 0.166753
17631 5 0.336832 0.238075 0.168662
17802 9 0.34913 0.219154 0.150014
20179 5 0.278465 0.236991 0.166155
17553 2 0.356944 0.24359 0.161205
20091 5 0.306066 0.144863 0.189306
20168 7 0.223193 0.251187 0.212554
15247 9 0.45461 0.131251 0.14975
17559 5 0.37924 0.235663 0.164063
17557 5 0.378925 0.175251 0.164357
17564 7 0.426807 0.207834 0.144155
17563 7 0.4059 0.219092 0.145755
17566 7 0.408691 0.165656 0.145124
17565 7 0.430214 0.155138 0.145969
17525 6 0.414559 0.151077 0.146778
17459 1 0.409445 0.145203 0.166823
17526 6 0.412802 0.205116 0.146678
14899 6 0.458833 0.206825 0.136988
14938 7 0.464662 0.210082 0.144202
14937 7 0.471507 0.209393 0.132585
15248 9 0.460017 0.182443 0.144458
15002 3 0.454665 0.247874 0.152894
14932 3 0.454941 0.171847 0.150397
15000 2 0.459531 0.232241 0.162443
15003 4 0.463081 0.207357 0.160212
14927 2 0.459388 0.182158 0.16166
15005 5 0.481918 0.239329 0.167223
14933 5 0.481356 0.173281 0.166144
15004 5 0.440749 0.237496 0.170613
17550 1 0.405418 0.205425 0.167449
15008 5 0.439817 0.180174 0.169164
17539 5 0.401985 0.205233 0.186472
14940 7 0.492477 0.138201 0.147183
17468 5 0.403914 0.142916 0.188785
14920 7 0.419599 0.175282 0.214847
1939 5 0.00314631 0.0821261 0.193955
25236 7 0.0018032 0.0507924 0.236076
25227 3 0.0701013 0.0226498 0.246228
25195 5 0.107055 0.0241716 0.191811
25198 5 0.10678 0.0800804 0.190536
25471 9 0.0698599 0.0100333 0.241709
25268 5 0.065615 0.0802534 0.195164
25258 1 0.0337212 0.112635 0.194169
25207 1 0.0383901 0.0529125 0.194299
25191 2 0.0883332 0.0874645 0.19848
25263 4 0.0886284 0.113105 0.198577
25197 4 0.0879162 0.0774613 0.209759
25192 5 0.080083 0.0318367 0.207577
25196 3 0.0419258 0.0576122 0.213031
25190 8 0.0725808 0.0547957 0.215384
25510 9 0.031736 0.0592852 0.219431
22684 7 0.114972 0.0996789 0.226817
25517 7 0.079623 0.0449685 0.236232
25240 6 0.0857275 0.0543673 0.229922
22685 7 0.0925775 0.0979432 0.218861
25506 7 0.0875842 0.0691029 0.233692
22649 6 0.100796 0.107771 0.224395
25194 5 0.0648772 0.0163235 0.192923
25189 2 0.0877253 0.0160941 0.198588
25201 6 0.0143779 0.0480274 0.241188
25472 9 0.070647 0.0899039 0.240531
22650 7 0.117999 0.0635488 0.212011
25237 7 0.0167385 0.0320258 0.240185
25310 7 0.071929 0.122839 0.22797
25231 3 0.072573 0.081741 0.246966
2441 5 0.00378799 0.0185954 0.196315
25270 6 0.0578258 0.127678 0.230352
25308 6 0.0336131 0.105387 0.214201
25272 7 0.0353835 0.111902 0.221101
25271 7 0.0401588 0.0897027 0.214784
25269 6 0.011833 0.117648 0.243094
25311 7 0.0201392 0.117517 0.236921
20176 5 0.247366 0.250008 0.155486
22687 7 0.115146 0.0287788 0.229798
22759 7 0.112073 0.123163 0.239701
14925 1 0.436819 0.175359 0.189418
14947 3 0.46633 0.155317 0.247429
22653 7 0.148948 0.0111829 0.210393
22643 5 0.201738 0.0851682 0.189416
22919 9 0.180304 0.0837103 0.24244
22648 6 0.131677 0.0297656 0.230976
22686 7 0.131861 0.0190967 0.236855
22682 6 0.138812 0.00205707 0.214682
22651 7 0.129996 0.0446393 0.217268
22683 6 0.131818 0.0535867 0.210703
20062 7 0.140455 0.0706762 0.229672
22635 1 0.135717 0.0504572 0.191915
20135 7 0.234463 0.0798712 0.246946
22572 5 0.205276 0.0230766 0.190219
22931 9 0.194853 0.0229959 0.216055
20083 1 0.233193 0.115236 0.189809
22655 1 0.135724 0.11479 0.189931
20029 1 0.237482 0.0538094 0.191222
22642 5 0.162393 0.0771267 0.192582
20063 7 0.189954 0.0741373 0.219937
22637 2 0.185098 0.0773528 0.198257
22641 4 0.188882 0.0532985 0.201317
22565 2 0.188009 0.0272016 0.199517
22640 5 0.181422 0.092209 0.207786
20060 6 0.241181 0.0620511 0.21141
20023 6 0.137916 0.0854208 0.231153
20061 7 0.144003 0.0877601 0.238389
20022 6 0.199188 0.0650846 0.224884
20064 7 0.210889 0.0599669 0.220412
22647 5 0.164465 0.017756 0.19884
20134 7 0.21832 0.0749672 0.237186
20096 6 0.221188 0.0718307 0.244961
22571 3 0.199861 0.0149353 0.209219
22612 6 0.181049 0.0267135 0.228859
22577 7 0.184868 0.04323 0.227885
22576 7 0.165873 0.0259162 0.228395
22638 8 0.169733 0.117582 0.213141
22918 9 0.177665 0.0198799 0.243815
20099 7 0.23921 0.121021 0.218077
20024 7 0.250567 0.0512878 0.215391
22644 3 0.140104 0.117429 0.209226
20131 6 0.240876 0.122714 0.210245
20133 7 0.207487 0.135467 0.240008
20132 7 0.230882 0.130338 0.240014
20097 6 0.218511 0.133353 0.245104
22652 7 0.135213 0.0108403 0.221301
17509 7 0.250743 0.0108785 0.220617
22965 7 0.165884 0.113345 0.233909
22688 6 0.174826 0.121997 0.228333
22675 3 0.17065 0.0921501 0.247324
14915 3 0.491998 0.202719 0.207638
15261 9 0.477366 0.165694 0.247221
17471 6 0.259837 0.0226316 0.222853
17475 7 0.351298 0.0155968 0.208375
20025 7 0.248413 0.0756954 0.213162
20365 9 0.255271 0.0402699 0.24497
20051 3 0.266761 0.0282258 0.245304
20130 6 0.261163 0.123905 0.232864
17510 7 0.25635 0.0257943 0.230119
20366 9 0.267283 0.103109 0.241941
20016 5 0.26145 0.0141312 0.19282
20017 5 0.303205 0.0191102 0.188343
20020 5 0.302677 0.0808393 0.187107
17477 1 0.337296 0.116433 0.188951
17458 1 0.333621 0.0515599 0.190098
20095 5 0.263368 0.0831526 0.193089
17464 5 0.361851 0.0867219 0.191175
20013 2 0.286546 0.0882593 0.19627
20379 9 0.281447 0.0633674 0.207281
20089 4 0.290319 0.113159 0.198992
20019 3 0.290255 0.0769985 0.207688
20378 9 0.278807 0.0284116 0.212887
17466 6 0.329778 0.0520848 0.210781
17493 7 0.31441 0.0552833 0.209381
17494 7 0.333482 0.0631769 0.21616
17473 7 0.344839 0.10543 0.21261
14960 7 0.363405 0.0812912 0.218699
17548 7 0.2955 0.112666 0.215443
14918 6 0.351159 0.0831102 0.223544
14959 7 0.355326 0.0797826 0.231066
17469 5 0.363911 0.0199739 0.195408
17456 7 0.295627 0.0463485 0.242597
17457 7 0.294712 0.0715377 0.242886
20014 3 0.286287 0.0321861 0.2058
20012 2 0.284948 0.0144787 0.197066
17503 6 0.30614 0.0593643 0.243801
17499 3 0.365852 0.0912486 0.244868
17582 7 0.333202 0.107986 0.240543
20056 3 0.271083 0.0894903 0.246243
17583 7 0.315459 0.119525 0.234943
17544 6 0.320738 0.117155 0.242725
17508 6 0.337781 0.119284 0.209381
17578 6 0.297676 0.123199 0.221659
17507 6 0.33833 0.00732678 0.21242
20101 7 0.273815 0.122648 0.227302
17474 7 0.328256 0.0194149 0.214837
17472 7 0.326878 0.122366 0.215345
17860 7 0.363761 -0.0033367 0.222039
17465 5 0.402354 0.0870709 0.188568
17813 9 0.376153 0.104164 0.244731
14878 6 0.446451 0.00564784 0.232969
17463 4 0.384422 0.0533794 0.196085
14870 5 0.463609 0.032145 0.248943
17460 2 0.383097 0.0787255 0.196268
17462 3 0.384355 0.0892973 0.207641
17386 2 0.386656 0.0290826 0.198529
17825 9 0.398363 0.0142434 0.21314
17391 3 0.387747 0.0251884 0.211075
14906 1 0.431938 0.114687 0.190427
17392 5 0.403565 0.0200854 0.19092
17826 9 0.388008 0.105133 0.206994
14849 1 0.436244 0.0541532 0.192935
14917 5 0.461638 0.0830911 0.195493
14837 5 0.460398 0.0241058 0.197353
14911 4 0.485678 0.115918 0.197686
14834 2 0.484282 0.0910147 0.199095
14839 3 0.489829 0.0886421 0.211478
14955 6 0.42666 0.0504532 0.211979
15273 9 0.491306 0.103086 0.214534
14922 7 0.431757 0.0548703 0.218998
14923 7 0.412941 0.0413445 0.212947
15308 7 0.472593 0.0668858 0.221969
14884 6 0.463609 0.0545698 0.226143
15297 7 0.471797 0.0406973 0.223493
15303 9 0.4135 0.0475197 0.237939
14868 8 0.454525 0.0557841 0.241113
14835 3 0.492359 0.0223774 0.21042
14874 3 0.424548 0.0522942 0.24444
14833 2 0.483233 0.014914 0.199166
12328 7 0.450659 0.105262 0.238577
14951 6 0.405003 0.116241 0.242209
14942 7 0.43579 0.118586 0.217629
12291 6 0.445259 0.119179 0.2355
14914 6 0.428886 0.120914 0.210723
14875 4 0.463657 0.0795302 0.248456
12366 6 0.490342 0.122986 0.223875
14992 6 0.413584 0.241487 0.247751
14847 7 0.454211 0.0183778 0.229907
14846 7 0.452477 0.00558794 0.240354
14904 7 0.420521 0.118388 0.238442
12408 7 0.475632 0.116631 0.226316
2007 5 0.0062931 0.208138 0.19514
22760 7 0.135462 0.134028 0.24289
14919 6 0.420437 0.174381 0.243339
22717 6 0.121866 0.128048 0.245635
25343 6 0.0117381 0.243904 0.240045
25381 7 0.0133733 0.240593 0.232694
1941 5 0.0031172 0.141341 0.193688
22791 6 0.0738574 0.235216 0.228037
17537 4 0.381934 0.176392 0.196778
25267 5 0.105567 0.207046 0.191364
25309 7 0.0635194 0.133839 0.236937
25265 5 0.101057 0.14763 0.1913
25348 7 0.0217983 0.193074 0.215581
25484 9 0.098564 0.131749 0.215644
25347 7 0.0144713 0.170826 0.214537
25512 9 0.0160293 0.168969 0.239356
25303 3 0.025886 0.178697 0.244251
25260 2 0.0867929 0.138196 0.200037
25264 5 0.062274 0.143956 0.198319
25332 1 0.0328338 0.237263 0.195913
25276 1 0.0385095 0.175413 0.196282
25342 5 0.0627786 0.203256 0.197893
25337 4 0.0852673 0.238806 0.197518
25261 2 0.0860517 0.213285 0.198648
25266 3 0.0944599 0.210968 0.21072
25262 3 0.0948008 0.144879 0.211755
25485 9 0.0895604 0.223375 0.215312
22720 7 0.122678 0.160687 0.213186
25377 6 0.0286102 0.178304 0.21537
25507 7 0.0591419 0.184602 0.221339
25518 7 0.0770813 0.164326 0.22485
25314 6 0.0714057 0.18003 0.227509
25297 8 0.0565936 0.180395 0.241882
22757 7 0.101409 0.182306 0.239454
22718 6 0.115054 0.183774 0.244391
25304 4 0.0617821 0.204768 0.249118
22796 7 0.120587 0.224072 0.213743
25378 6 0.0303336 0.235067 0.216883
22830 7 0.066531 0.22603 0.232568
25346 7 0.0450109 0.236425 0.220311
22958 9 0.126751 0.116278 0.215194
22646 5 0.204126 0.144211 0.186949
22747 5 0.167602 0.22072 0.250137
22751 3 0.127551 0.243474 0.242654
22825 6 0.136301 0.229764 0.213389
20207 7 0.206649 0.236721 0.236422
22758 7 0.127095 0.187555 0.239167
20208 7 0.230908 0.239811 0.238103
22920 9 0.166148 0.125794 0.249546
22954 7 0.177029 0.137118 0.231853
22756 6 0.135372 0.170692 0.21238
22706 1 0.133733 0.178172 0.192474
22719 7 0.141632 0.171373 0.219897
22713 5 0.204742 0.208394 0.190251
20103 1 0.238325 0.175142 0.190502
20154 1 0.233309 0.237123 0.190769
22716 5 0.163244 0.144535 0.189815
22724 1 0.138427 0.238765 0.194664
22722 7 0.160642 0.196108 0.237777
22645 4 0.182439 0.137092 0.204688
22712 5 0.164837 0.209637 0.194179
22639 2 0.185789 0.150683 0.194462
22708 2 0.18643 0.200848 0.197839
22711 4 0.185453 0.174769 0.19748
22710 3 0.185718 0.207049 0.209807
22932 9 0.189188 0.194021 0.214452
20167 7 0.210484 0.231517 0.211532
20204 6 0.226173 0.23564 0.210545
20092 3 0.240788 0.174761 0.208747
22721 7 0.159298 0.171834 0.23877
20406 9 0.227205 0.177936 0.213844
22966 7 0.17164 0.221676 0.2231
22745 8 0.159093 0.24139 0.240725
20166 6 0.191902 0.169477 0.221475
20206 7 0.176824 0.17389 0.224934
22755 6 0.156715 0.183822 0.23285
20205 7 0.186936 0.16267 0.214847
22762 6 0.176443 0.23509 0.227524
20165 6 0.217674 0.2366 0.242253
22679 3 0.166961 0.141416 0.247978
22795 7 0.142751 0.231762 0.220754
20170 7 0.265308 0.215791 0.225603
20169 7 0.246547 0.23097 0.223969
20094 5 0.301058 0.206352 0.18677
20098 7 0.25163 0.135024 0.209556
17618 7 0.309703 0.244625 0.230148
17538 5 0.361237 0.208704 0.189851
20100 7 0.264111 0.135126 0.237772
17545 6 0.331361 0.244575 0.24393
20164 5 0.260807 0.215507 0.189988
20090 5 0.264614 0.139254 0.191008
17551 1 0.33591 0.237636 0.189857
17531 1 0.331187 0.177452 0.187889
17549 7 0.297249 0.136157 0.217206
20203 6 0.257505 0.226904 0.229288
20368 9 0.266261 0.213078 0.24158
17543 5 0.362808 0.143418 0.189779
20085 2 0.287964 0.138287 0.196659
20086 8 0.271076 0.177672 0.21188
20087 2 0.283992 0.214666 0.194428
20159 4 0.288465 0.239109 0.197975
20088 5 0.283042 0.15412 0.205604
20093 4 0.28176 0.199438 0.204232
17547 7 0.335417 0.207177 0.208003
17540 3 0.341444 0.236088 0.209814
17579 6 0.327693 0.192251 0.207114
17546 7 0.310885 0.1967 0.206065
20136 6 0.274545 0.178455 0.227151
20413 7 0.261752 0.184142 0.232375
20402 7 0.278828 0.164782 0.231897
20127 3 0.269555 0.204237 0.247882
17571 3 0.367832 0.209172 0.244921
17580 7 0.342083 0.232993 0.244757
20367 9 0.263548 0.173196 0.249335
20123 3 0.268484 0.158346 0.248505
17854 9 0.330175 0.243924 0.215215
17617 7 0.286324 0.246521 0.227449
17534 8 0.372013 0.235561 0.213116
17827 9 0.369301 0.13226 0.207647
17850 7 0.383324 0.218212 0.231758
17651 6 0.300126 0.245345 0.224129
14979 1 0.43294 0.235439 0.190125
15030 7 0.415989 0.235882 0.240852
14997 7 0.398119 0.148333 0.220239
17815 9 0.370722 0.195003 0.241585
14908 2 0.484049 0.140795 0.197868
15262 9 0.484988 0.227021 0.244822
14941 7 0.416232 0.129884 0.212367
14905 7 0.395988 0.130493 0.241703
14995 7 0.444392 0.234501 0.217737
15027 6 0.436138 0.232087 0.211445
12353 7 0.49655 0.190452 0.243922
14996 7 0.415113 0.140361 0.228902
17536 5 0.381581 0.213357 0.20507
17467 3 0.383983 0.139786 0.206634
17504 3 0.375784 0.151477 0.245951
14958 7 0.415759 0.166793 0.236029
14994 7 0.436321 0.216239 0.212227
14909 2 0.485992 0.213859 0.196622
14952 3 0.47802 0.214274 0.24771
15275 9 0.488442 0.187514 0.207431
17584 6 0.385238 0.232343 0.226901
15026 6 0.410786 0.152887 0.224537
17461 2 0.383783 0.15048 0.195388
14921 7 0.442984 0.169957 0.212874
14991 5 0.462778 0.210158 0.192691
14985 4 0.488747 0.239455 0.198693
12407 7 0.485265 0.137371 0.219967
14912 5 0.461103 0.148514 0.193124
12329 7 0.450506 0.129773 0.240794
14910 3 0.490329 0.153818 0.208309
14957 7 0.435848 0.170236 0.244409
17533 2 0.382893 0.200986 0.194469
14956 6 0.4324 0.180529 0.210625
17814 9 0.381945 0.164998 0.243213
17637 7 0.421136 0.248057 0.148
22829 7 0.0761824 0.249365 0.231152
25345 7 0.0234879 0.248062 0.218957
15031 7 0.401333 0.251836 0.246993
17861 7 0.383263 0.244039 0.232824
25178 3 0.0296044 0.047304 0.299684
25245 3 0.0287738 0.116394 0.304005
25251 5 0.0221978 0.0597733 0.280845
25246 4 0.0410378 0.0837801 0.292185
25243 2 0.0377549 0.109512 0.292518
25224 1 0.0893243 0.086516 0.285956
25179 5 0.0615244 0.0500395 0.287522
25173 2 0.0393899 0.0592403 0.290127
22624 5 0.118643 0.0596757 0.286595
22699 5 0.123549 0.116293 0.28482
25170 1 0.0861055 0.0233266 0.286438
25232 5 0.084872 0.0850989 0.265986
25230 5 0.0836639 0.0264624 0.265642
22671 1 0.114183 0.0546454 0.265281
25171 1 0.0181738 0.0553707 0.261066
25229 5 0.0430448 0.0220192 0.261458
25294 1 0.0122313 0.117076 0.263251
25306 5 0.0436783 0.0880385 0.260714
25226 2 0.0678235 0.092277 0.257674
25225 2 0.0660931 0.0164925 0.258369
25496 9 0.037809 0.0496591 0.306477
25288 6 0.0990215 0.0893076 0.306118
25218 6 0.0863529 0.0211703 0.306545
25497 9 0.0198291 0.104493 0.306601
22619 1 0.119868 0.117284 0.266079
25300 4 0.0702572 0.118256 0.25616
25257 7 0.107264 0.103466 0.305887
25256 7 0.111704 0.0787053 0.306869
25247 5 0.0206655 0.118123 0.28414
25248 5 0.0603155 0.119901 0.28988
25495 9 0.0321587 0.0167426 0.301221
25183 7 0.0744813 0.0107308 0.309248
1929 7 0.00788182 0.0741203 0.306877
25184 7 0.0978375 0.0230165 0.312246
22622 3 0.134348 0.0599701 0.305324
22623 4 0.136854 0.0255262 0.294044
22681 5 0.143597 0.0240526 0.262204
22620 2 0.139822 0.0515758 0.292898
19999 4 0.23171 0.0461429 0.300116
19993 2 0.238848 0.0626698 0.291793
20068 2 0.240063 0.112755 0.29231
20071 4 0.235792 0.0875227 0.294389
22625 5 0.16278 0.0599314 0.288895
22627 5 0.162948 0.11866 0.291176
22618 1 0.187661 0.0882632 0.286634
20076 5 0.22435 0.0594439 0.281464
22600 1 0.192478 0.0258851 0.285933
22609 5 0.184005 0.0283169 0.268078
22678 5 0.184721 0.0891096 0.265949
19990 1 0.219461 0.055322 0.264381
22677 5 0.143933 0.083202 0.261942
20129 5 0.244562 0.0877264 0.261304
20053 5 0.243774 0.0249218 0.261061
22602 2 0.167114 0.0300533 0.259266
22673 2 0.166886 0.0801424 0.258135
22676 4 0.166455 0.0551341 0.255179
19998 3 0.19479 0.027475 0.306157
19992 8 0.225461 0.0227751 0.307798
20119 1 0.214451 0.118431 0.264743
22943 9 0.134441 0.0471751 0.31015
20072 5 0.220193 0.12088 0.286515
20391 9 0.234654 0.112232 0.309143
22626 3 0.133981 0.118438 0.305355
22608 3 0.175826 0.0122556 0.250382
19994 5 0.232476 0.0014383 0.298602
20000 5 0.263275 0.0625441 0.28901
17448 5 0.362856 0.117146 0.289309
17440 8 0.326527 0.0867327 0.309019
17446 3 0.295924 0.0879269 0.307342
17442 5 0.331431 0.0636601 0.300774
17447 4 0.330826 0.107849 0.299475
17443 4 0.336054 0.023505 0.294026
17439 2 0.337339 0.0487593 0.291763
20048 1 0.294026 0.0881247 0.286853
19989 1 0.287477 0.0251297 0.285031
17445 5 0.361083 0.0548053 0.288126
17444 5 0.320512 0.0532841 0.282829
20057 5 0.286196 0.0856895 0.265754
17495 1 0.313271 0.0548539 0.263555
17506 5 0.343033 0.0277025 0.263722
20054 5 0.285256 0.025242 0.263455
17438 1 0.320783 0.119054 0.26267
17501 5 0.344287 0.0870584 0.261423
17421 2 0.366049 0.0292813 0.258821
20050 2 0.26863 0.0956869 0.25842
20049 2 0.265623 0.0176068 0.256686
17497 2 0.366036 0.0790642 0.256076
20040 6 0.293341 0.0195678 0.304996
17500 4 0.367059 0.0533818 0.253838
20073 5 0.262523 0.119492 0.287917
20005 7 0.297918 0.00409989 0.30601
20124 4 0.269493 0.120555 0.257484
17857 9 0.284845 0.100299 0.309795
17524 5 0.323652 0.120808 0.280964
20004 7 0.308246 0.0272586 0.306175
14624 9 0.495 0.196936 0.420928
17441 2 0.338823 0.123629 0.290349
17502 5 0.385097 0.0862184 0.263156
17428 5 0.382929 0.0221833 0.267095
17437 1 0.385329 0.0864662 0.284637
15286 9 0.420315 0.0400869 0.301143
14822 3 0.431829 0.0528118 0.302662
14891 4 0.439092 0.0878577 0.293659
14817 2 0.438403 0.0628934 0.291771
14887 2 0.437872 0.112415 0.290488
14823 5 0.461336 0.0546019 0.288844
17418 1 0.391995 0.0217789 0.284273
14893 5 0.461562 0.120382 0.287586
14897 5 0.420798 0.0567082 0.283707
14892 5 0.42002 0.118496 0.282616
14866 1 0.492418 0.0870602 0.286238
14814 1 0.485273 0.0238636 0.286357
14873 5 0.481918 0.022529 0.26725
14876 5 0.482146 0.0833388 0.266122
14815 1 0.41765 0.0529698 0.263844
14943 1 0.410649 0.115926 0.263331
14954 5 0.441711 0.0886562 0.263421
17412 6 0.39673 0.0216075 0.30505
14869 2 0.465313 0.0934147 0.258494
14872 5 0.442373 0.023755 0.263682
14867 2 0.464679 0.01622 0.25895
17380 7 0.405344 0.00764064 0.306366
14948 4 0.469557 0.118929 0.256488
14860 6 0.496568 0.0796845 0.307308
25296 2 0.0675568 0.142491 0.259941
25241 1 0.0856405 0.15078 0.287486
25249 3 0.0327584 0.190862 0.304104
25360 6 0.0929995 0.215256 0.306814
25320 4 0.0366422 0.215284 0.287672
25317 2 0.0379175 0.240922 0.288266
25295 1 0.0905619 0.214918 0.285899
25250 5 0.0619506 0.184727 0.289056
25244 2 0.0374402 0.191735 0.292026
22695 5 0.117522 0.184469 0.286709
25325 5 0.0193683 0.179591 0.286258
25302 5 0.0857522 0.147401 0.267887
25305 5 0.085405 0.211647 0.265039
22742 1 0.113593 0.181429 0.264991
25301 5 0.043476 0.148552 0.263545
25242 1 0.019608 0.180545 0.2644
25376 5 0.042599 0.212527 0.263141
25298 2 0.0649341 0.219234 0.259105
25289 6 0.0907973 0.152159 0.307749
25366 1 0.0118338 0.244508 0.260581
25331 7 0.107429 0.223152 0.308232
25498 9 0.0363859 0.2044 0.3078
25371 4 0.0647241 0.243201 0.255467
22690 1 0.118553 0.242404 0.260136
22945 9 0.11808 0.183381 0.305506
22773 5 0.122963 0.245614 0.278997
1999 7 -0.000414375 0.202114 0.308366
25322 5 0.0619373 0.249265 0.285528
25330 7 0.082188 0.221909 0.31196
25321 5 0.0192802 0.24778 0.281341
25255 7 0.105514 0.159525 0.309174
25299 5 0.0664556 0.158296 0.250555
1996 7 0.0472517 0.238894 0.312585
20070 3 0.239559 0.123747 0.303901
22944 9 0.134255 0.130871 0.310419
22697 3 0.125452 0.246536 0.299347
22693 3 0.132474 0.176346 0.304997
22621 2 0.138971 0.125106 0.293608
22694 4 0.137612 0.149904 0.291629
22691 2 0.138927 0.174696 0.292792
22748 4 0.171159 0.17895 0.255502
22674 2 0.165911 0.154582 0.258665
22754 5 0.142144 0.154221 0.263167
20202 5 0.242377 0.209968 0.261466
22672 1 0.191074 0.151201 0.286925
20142 4 0.240681 0.213265 0.290539
20147 5 0.223109 0.179793 0.284605
22696 5 0.161628 0.183612 0.290271
20074 3 0.233204 0.186364 0.304823
20069 2 0.239748 0.188431 0.292521
22689 1 0.186186 0.212847 0.286447
20392 9 0.224968 0.172963 0.306489
20139 2 0.237842 0.23792 0.291744
20067 1 0.219284 0.17911 0.264484
22680 5 0.184159 0.147008 0.265934
22750 5 0.185232 0.21018 0.267558
22749 5 0.14403 0.208392 0.263285
20125 5 0.245484 0.150159 0.263105
22744 2 0.167685 0.204495 0.259032
22737 6 0.188945 0.214145 0.306292
22736 6 0.192682 0.155853 0.306674
20393 9 0.228998 0.225437 0.307059
22698 5 0.161452 0.243867 0.286411
20190 1 0.213698 0.242907 0.262146
20141 3 0.232388 0.240302 0.304558
20143 5 0.219599 0.247312 0.283882
22705 7 0.178555 0.162645 0.307123
20144 5 0.261081 0.245636 0.288891
17572 4 0.368226 0.18174 0.258711
20126 5 0.286879 0.155797 0.266507
20075 5 0.263124 0.180343 0.289919
20066 1 0.287271 0.150102 0.288002
17516 2 0.338228 0.17357 0.293413
17518 3 0.336413 0.182299 0.305643
20079 7 0.312769 0.203634 0.306307
20114 6 0.30127 0.213753 0.307463
17519 4 0.334468 0.148282 0.294212
17521 5 0.360698 0.179013 0.288642
20120 1 0.292301 0.214553 0.286855
17520 5 0.320192 0.183916 0.286392
17595 5 0.319141 0.239588 0.285741
17567 1 0.315543 0.181771 0.26528
20128 5 0.285571 0.208313 0.265644
17577 5 0.343651 0.148589 0.260027
17573 5 0.344283 0.214364 0.261274
17498 2 0.36738 0.156677 0.257861
20121 2 0.269406 0.145476 0.259457
17569 2 0.366595 0.206334 0.257512
20122 2 0.266443 0.216645 0.258393
20196 4 0.270945 0.24215 0.256225
20113 6 0.282368 0.144021 0.307893
17839 9 0.338487 0.169697 0.310131
17529 7 0.368716 0.222553 0.309165
17530 7 0.362889 0.198466 0.307457
17840 9 0.326258 0.233317 0.305515
17523 5 0.359837 0.24015 0.285972
17515 1 0.319066 0.244311 0.263932
20081 7 0.267422 0.135314 0.307337
20082 7 0.279077 0.157627 0.312368
17522 3 0.340921 0.240187 0.303668
17561 6 0.376371 0.209159 0.307223
15020 4 0.471162 0.246537 0.25845
17505 5 0.383828 0.148072 0.266644
17574 5 0.385137 0.214469 0.265054
17514 1 0.385818 0.210663 0.287268
14890 5 0.43324 0.126543 0.300185
14945 2 0.465106 0.143487 0.258634
14886 1 0.419397 0.18109 0.26361
14894 3 0.39674 0.151412 0.306346
14972 5 0.422741 0.182401 0.281967
14896 5 0.464817 0.183056 0.287959
14888 8 0.427743 0.14945 0.308358
12342 3 0.494756 0.211365 0.30785
14895 4 0.434917 0.172361 0.299715
14964 2 0.437537 0.236308 0.293378
14967 4 0.437921 0.211039 0.294052
14889 2 0.441051 0.186848 0.290487
17496 1 0.392188 0.150963 0.286635
14944 1 0.494406 0.213635 0.288594
14885 1 0.487705 0.14792 0.287228
14953 5 0.487216 0.210812 0.266898
14936 6 0.493566 0.141154 0.307907
14950 5 0.48332 0.149014 0.266923
15025 5 0.446255 0.214153 0.262169
14949 5 0.441419 0.149264 0.262345
14946 2 0.469886 0.220967 0.259577
14969 5 0.460859 0.244608 0.290536
15015 1 0.414874 0.240772 0.266323
15305 9 0.386965 0.160764 0.310851
14900 7 0.483037 0.143729 0.31336
12753 9 0.484397 0.209585 0.31456
14329 4 0.463226 0.176232 0.471321
14968 5 0.420971 0.242722 0.284934
24544 6 0.081794 0.0261537 0.334925
24654 7 0.0777717 0.0903722 0.328097
24655 7 0.101149 0.0951627 0.331778
24614 6 0.0868532 0.0925979 0.334707
24820 9 0.0465596 0.0399158 0.339202
24550 1 0.088751 0.0866287 0.35534
24571 2 0.034114 0.0606493 0.351497
24576 3 0.0315734 0.0473483 0.340617
24577 5 0.0578132 0.0534728 0.354972
24639 2 0.0321849 0.110958 0.351439
24643 4 0.0324972 0.0850284 0.349054
24644 5 0.0163465 0.116898 0.360302
24645 5 0.0561295 0.118724 0.354121
24649 5 0.0161791 0.0535812 0.359954
24568 1 0.0822539 0.0253484 0.355791
22022 5 0.116252 0.0587822 0.354387
22097 5 0.118801 0.117169 0.354814
24582 7 0.096775 0.0316983 0.333314
24581 7 0.0760798 0.0248452 0.327848
24819 9 0.0280582 0.0122984 0.341209
22665 6 0.121487 0.029505 0.321586
22266 9 0.115965 0.00604399 0.336964
24560 5 0.0839057 0.0864341 0.375267
22267 9 0.141678 0.0722214 0.336122
20409 9 0.183659 0.0317868 0.311748
22634 7 0.124498 0.0448088 0.324195
22268 9 0.127708 0.121799 0.329464
22020 3 0.135626 0.0581183 0.336822
22024 3 0.133148 0.111731 0.33463
22032 7 0.206268 0.0380337 0.335327
22021 4 0.137906 0.0244006 0.351413
20065 6 0.239884 0.0269832 0.321336
22631 7 0.183663 0.0915405 0.330024
22632 7 0.162163 0.100975 0.333507
19714 9 0.231449 0.0768326 0.335731
22666 6 0.172155 0.0875633 0.334538
19468 3 0.229922 0.109289 0.334926
19398 3 0.23025 0.0611858 0.338021
19466 2 0.235397 0.110022 0.347763
19469 4 0.236741 0.0860856 0.352039
19393 2 0.236149 0.0605372 0.350258
19470 5 0.21716 0.120749 0.35419
19474 5 0.216917 0.05059 0.356787
22016 1 0.183774 0.0855239 0.354333
22018 2 0.135188 0.0494346 0.348367
22023 5 0.158446 0.0582884 0.353541
22025 5 0.157192 0.11783 0.351315
21925 1 0.186735 0.0236973 0.357302
21991 6 0.195042 0.0265765 0.33647
22031 7 0.203631 0.0133579 0.336409
22005 5 0.179744 0.0888085 0.374592
22019 2 0.135827 0.124345 0.345923
20415 7 0.23894 0.0137709 0.327465
19715 9 0.238494 0.120329 0.331686
22633 7 0.135262 0.0220963 0.322145