ITEM: TIMESTEP
209000
ITEM: NUMBER OF ATOMS
25520
ITEM: BOX BOUNDS pp pp pp
-3.6767516157805002e-01 6.0066218751577516e+01
-1.9231107353610442e+00 5.9093396009362216e+01
-1.2600585308019927e+01 1.1187631771402410e+02
ITEM: ATOMS id type xs ys zs
14937 7 0.480471 0.202518 0.134183
25182 6 0.110095 0.0288307 0.149716
25252 6 0.112157 0.0838654 0.147332
25214 3 0.042491 0.0387139 0.156991
25287 5 0.040173 0.049879 0.175715
25283 5 0.0801299 0.106807 0.168
25282 5 0.038962 0.110513 0.175338
25281 4 0.0515685 0.0783125 0.162617
25277 2 0.0541443 0.103881 0.165713
25215 5 0.079925 0.0464266 0.166759
25209 2 0.0549103 0.0534767 0.165884
25188 1 0.110776 0.0791839 0.168008
25458 9 0.0504368 0.0379972 0.150617
25206 1 0.10411 0.0154444 0.169015
2433 1 0.012783 0.0166056 0.172326
1949 1 0.00370603 0.0800466 0.172782
25280 5 0.0461882 0.12074 0.157714
25219 7 0.104551 0.0422892 0.146911
25293 7 0.105873 0.0785133 0.140629
25220 7 0.125961 0.0301889 0.148317
25292 7 0.122216 0.0946431 0.144787
22735 5 0.139317 0.114822 0.171615
22660 5 0.137791 0.0503653 0.169154
22905 9 0.166946 0.0319002 0.147154
22662 3 0.151304 0.107942 0.150879
22658 3 0.154442 0.0398673 0.150693
22656 2 0.157498 0.0393567 0.163159
20108 5 0.238273 0.113353 0.16848
20112 5 0.234991 0.0478438 0.168917
22663 5 0.180073 0.108054 0.165396
22654 1 0.203675 0.0810058 0.166732
22661 5 0.180324 0.0494471 0.165523
22669 7 0.234573 0.0246611 0.151271
22659 4 0.156858 0.0151433 0.166674
22563 1 0.210658 0.0167613 0.170506
22629 6 0.223901 0.0133389 0.150544
22906 9 0.160739 0.0950441 0.150516
22657 2 0.157116 0.117854 0.162627
22904 9 0.148009 -0.00274476 0.148842
22670 7 0.23341 -0.000503266 0.15053
20036 3 0.25913 0.0440536 0.152337
20353 9 0.265586 0.110803 0.145925
20106 3 0.252036 0.107277 0.149821
20107 4 0.257216 0.0789705 0.16334
20031 2 0.257697 0.0544523 0.163928
20104 2 0.257685 0.104074 0.162111
20352 9 0.264986 0.0543749 0.147175
20118 7 0.328755 0.0859247 0.148292
20117 7 0.312823 0.0734637 0.140759
20077 6 0.315048 0.0766678 0.14832
17480 3 0.353414 0.0445215 0.151519
17799 9 0.342628 0.0562228 0.15064
17484 3 0.352925 0.103908 0.150525
17478 2 0.356878 0.0381974 0.163641
20109 5 0.281142 0.112885 0.164379
17482 5 0.338993 0.050183 0.169517
20037 5 0.278546 0.0447266 0.168625
20011 1 0.307801 0.0782422 0.168891
20028 1 0.305416 0.0161763 0.169803
17481 4 0.35444 0.0138381 0.165621
20003 6 0.317606 0.0119947 0.149433
17560 5 0.336461 0.108857 0.168994
17479 2 0.354409 0.11781 0.161409
17800 9 0.367657 0.0979189 0.149161
20042 7 0.326599 0.0236993 0.152643
17413 7 0.366609 0.0174573 0.140908
20041 7 0.325579 -0.00168221 0.149619
17378 6 0.375468 0.00614769 0.137715
17483 5 0.380168 0.0458906 0.166397
17485 5 0.378447 0.114034 0.164792
17490 7 0.42792 0.074506 0.148455
17489 7 0.415425 0.0910861 0.142504
17451 6 0.412677 0.0807021 0.148169
14856 3 0.44444 0.0347564 0.154366
15246 9 0.443365 0.0429137 0.147785
14929 4 0.453648 0.0734124 0.159746
14926 2 0.456961 0.0990511 0.160955
14851 2 0.454954 0.049391 0.163405
14931 5 0.479894 0.104333 0.164827
14857 5 0.479219 0.0463373 0.167197
17476 1 0.402144 0.0779431 0.16763
14934 5 0.438757 0.0462293 0.173508
14930 5 0.438987 0.107109 0.168878
17384 1 0.410069 0.0130386 0.169643
17450 6 0.414009 0.0022126 0.148961
17491 7 0.425843 0.0131535 0.147945
17492 7 0.404232 0.0045979 0.142991
14928 3 0.455112 0.109204 0.149613
14940 7 0.488115 0.132056 0.147489
15247 9 0.444267 0.120742 0.148971
25290 7 0.0842466 0.128069 0.150488
25291 7 0.0910696 0.143746 0.142663
2032 7 0.0350962 0.161356 0.13144
2065 6 0.00915059 0.214222 0.153259
25284 3 0.0066851 0.145731 0.153417
2033 7 0.0598814 0.166218 0.137249
1995 6 0.046901 0.153426 0.136413
25253 6 0.0941774 0.140458 0.150053
25275 1 0.102548 0.144839 0.170559
25278 8 0.0376978 0.144645 0.150601
22957 9 0.0965613 0.212251 0.14756
22732 3 0.109469 0.205987 0.152248
25285 4 0.0443762 0.165797 0.159634
25359 5 0.0385925 0.17838 0.177831
25356 5 0.0780945 0.239269 0.169626
25354 4 0.0548179 0.203855 0.164768
25351 2 0.0557664 0.230599 0.1657
25286 5 0.0771797 0.173894 0.171049
25279 2 0.0538826 0.180048 0.168212
25259 1 0.10911 0.20667 0.17018
25355 5 0.037971 0.237872 0.17364
25433 7 0.0667457 0.204053 0.145673
25394 6 0.0680185 0.206281 0.138127
25432 7 0.0640025 0.221428 0.13744
2104 7 0.0242135 0.215711 0.155867
1933 1 0.0106319 0.142447 0.172885
2017 1 0.00301037 0.207281 0.173099
25353 3 0.0522231 0.238753 0.153573
2103 7 0.011057 0.211297 0.146395
1962 7 0.152676 0.192873 0.129501
1927 6 0.142442 0.206035 0.132539
22668 7 0.1477 0.138119 0.135399
22630 6 0.146198 0.154448 0.13447
1963 7 0.15024 0.21918 0.128253
22726 8 0.139092 0.207939 0.147991
22730 5 0.13798 0.172902 0.172635
22740 7 0.227317 0.122986 0.145591
22667 7 0.147302 0.159424 0.141925
22700 6 0.216784 0.134894 0.146549
22636 1 0.209738 0.142803 0.166881
22729 4 0.158797 0.143261 0.161148
22733 4 0.146038 0.228871 0.156635
20188 7 0.219822 0.204011 0.147929
20189 7 0.199223 0.192613 0.143179
22741 7 0.223851 0.149933 0.146367
20148 6 0.203953 0.203678 0.148231
22728 5 0.149689 0.185123 0.155487
22725 2 0.155845 0.168556 0.163423
20178 5 0.238215 0.232474 0.170662
20183 5 0.239143 0.174757 0.168511
22723 1 0.201944 0.207285 0.169009
22731 5 0.179173 0.176561 0.166444
22734 5 0.178452 0.236667 0.167574
22807 5 0.137186 0.241512 0.174291
22727 2 0.154434 0.244427 0.165323
20176 5 0.249228 0.245797 0.152963
22646 5 0.205128 0.144381 0.188304
20110 3 0.25079 0.165591 0.149402
20177 4 0.253921 0.20514 0.157263
20354 9 0.252952 0.174752 0.143098
20173 2 0.255952 0.229605 0.161645
20105 2 0.256189 0.179849 0.159633
17555 4 0.351736 0.142938 0.15848
20102 1 0.304099 0.142381 0.168269
17554 3 0.3495 0.182347 0.151336
17801 9 0.355759 0.176325 0.144845
17558 3 0.349948 0.229535 0.149169
17552 2 0.355788 0.167563 0.161391
17556 5 0.338348 0.174306 0.169624
20111 5 0.279929 0.174055 0.163411
20084 1 0.308097 0.204687 0.168195
17631 5 0.338317 0.236718 0.168394
17802 9 0.350483 0.214017 0.150528
20179 5 0.28105 0.232727 0.164258
17553 2 0.355492 0.241778 0.160218
20091 5 0.301126 0.142754 0.186843
17559 5 0.380099 0.235494 0.1643
17557 5 0.379832 0.172592 0.163894
17564 7 0.423665 0.212532 0.145975
17563 7 0.401107 0.217826 0.141158
17566 7 0.410267 0.137323 0.13876
17565 7 0.426318 0.14952 0.146325
17525 6 0.415974 0.137092 0.145894
17459 1 0.407403 0.138915 0.167512
17526 6 0.407505 0.207511 0.146032
14899 6 0.46903 0.193534 0.13245
14938 7 0.47434 0.187568 0.125877
15248 9 0.458881 0.178541 0.14385
15002 3 0.453131 0.224973 0.147174
14932 3 0.4503 0.168514 0.148446
15000 2 0.457383 0.222805 0.159444
15003 4 0.459932 0.198099 0.160977
14927 2 0.457761 0.172872 0.160561
15005 5 0.479996 0.232365 0.162845
14933 5 0.48104 0.163498 0.162237
15004 5 0.437143 0.230285 0.165668
17550 1 0.404049 0.203189 0.166327
15008 5 0.43858 0.166234 0.167991
14939 7 0.491852 0.155602 0.150612
15249 9 0.459808 0.212325 0.143427
17539 5 0.402835 0.203634 0.186936
14995 7 0.445678 0.212615 0.205761
17468 5 0.403977 0.139764 0.187988
14979 1 0.430411 0.234669 0.187417
17637 7 0.424584 0.246603 0.144349
1939 5 0.00135817 0.0830699 0.193135
25227 3 0.0699225 0.0206093 0.245438
25195 5 0.102174 0.016615 0.188738
25198 5 0.103399 0.0794879 0.189263
25471 9 0.0689877 0.00660323 0.241018
25268 5 0.0618455 0.0808716 0.19443
25258 1 0.0321302 0.11217 0.19376
25207 1 0.0365603 0.0495042 0.194946
25191 2 0.085444 0.0868405 0.197173
25263 4 0.0892356 0.111707 0.19868
25197 4 0.08641 0.073467 0.207484
25192 5 0.0858592 0.0292946 0.206015
25196 3 0.0474645 0.0513956 0.213698
25190 8 0.0782324 0.0508149 0.214777
25510 9 0.0358149 0.0543101 0.21959
22684 7 0.107827 0.105522 0.226187
25517 7 0.0840774 0.0392396 0.235338
25240 6 0.0886392 0.0506422 0.229584
22685 7 0.0924529 0.0954683 0.217645
25506 7 0.0888551 0.0663375 0.233763
22649 6 0.0934536 0.106068 0.223509
25194 5 0.0621365 0.0114775 0.194597
25189 2 0.0867365 0.0106526 0.197835
25201 6 0.0187965 0.0455662 0.240121
25472 9 0.0780801 0.0971688 0.240759
25237 7 0.0233834 0.0309785 0.238454
25310 7 0.0658652 0.120175 0.229389
25231 3 0.0789442 0.0831663 0.245284
2441 5 0.00527087 0.0164354 0.193883
25308 6 0.0396399 0.0989955 0.212751
25272 7 0.0418087 0.102441 0.220346
25271 7 0.0482228 0.0856923 0.211536
25269 6 0.0113007 0.113979 0.241961
25270 6 0.0517886 0.12077 0.232092
25311 7 0.0230441 0.113844 0.236549
2508 9 0.00686929 0.0898069 0.212712
25236 7 0.00659553 0.0479971 0.234693
22687 7 0.1162 0.027085 0.228866
15027 6 0.440325 0.227502 0.206995
22572 5 0.203273 0.0213857 0.18918
22643 5 0.201383 0.0819232 0.187472
20062 7 0.12107 0.0811348 0.233598
22650 7 0.130338 0.0695045 0.215504
22919 9 0.183473 0.0789065 0.24146
22648 6 0.131811 0.0251118 0.229822
22686 7 0.131834 0.0140299 0.235256
22651 7 0.138237 0.0451775 0.21673
22683 6 0.135675 0.0569206 0.211355
22635 1 0.130887 0.0503975 0.1908
20135 7 0.243154 0.0677319 0.246366
22931 9 0.192972 0.0252253 0.214518
20083 1 0.230719 0.112454 0.189426
22655 1 0.136958 0.11414 0.189797
20029 1 0.238173 0.0501121 0.191538
22642 5 0.161133 0.0786749 0.190141
20063 7 0.199989 0.0887891 0.226292
22637 2 0.183542 0.0770289 0.195122
22641 4 0.186728 0.0532093 0.198627
22565 2 0.187164 0.0278717 0.198102
22640 5 0.180541 0.0930563 0.203792
20060 6 0.240551 0.0603375 0.211405
20023 6 0.134644 0.0847985 0.23004
20061 7 0.145011 0.084599 0.236042
20022 6 0.206561 0.0753998 0.227474
20064 7 0.217889 0.0742265 0.222167
22647 5 0.16317 0.0198784 0.194242
20134 7 0.226406 0.0596026 0.237841
20096 6 0.229745 0.0590981 0.24573
22571 3 0.19049 0.0154869 0.2087
22612 6 0.181853 0.0344081 0.231119
22577 7 0.188159 0.0492934 0.229669
22576 7 0.167288 0.0347865 0.228279
22638 8 0.169305 0.11527 0.211407
22918 9 0.179914 0.0234577 0.243828
22644 3 0.139466 0.117653 0.208345
22652 7 0.137793 0.00339475 0.2189
22965 7 0.169083 0.109811 0.232275
22688 6 0.180008 0.115522 0.225907
22675 3 0.173176 0.0887904 0.245601
22958 9 0.127785 0.127331 0.211968
20024 7 0.244276 0.0474277 0.216248
20133 7 0.198733 0.107766 0.24216
20097 6 0.211314 0.116541 0.244756
20132 7 0.223828 0.108796 0.241655
20098 7 0.233944 0.118913 0.216578
20008 7 0.200069 -0.00162933 0.242012
20131 6 0.230266 0.122202 0.209289
17509 7 0.25761 0.00464686 0.226766
25365 7 0.115404 0.249947 0.150173
20017 5 0.300849 0.0144095 0.189763
20025 7 0.255409 0.0661311 0.211288
20020 5 0.302202 0.0756796 0.190014
17471 6 0.253467 0.0179312 0.223375
20365 9 0.275914 0.0060456 0.24122
20051 3 0.270247 0.0186995 0.245307
20130 6 0.252937 0.11633 0.234019
17510 7 0.253125 0.0279742 0.229279
20366 9 0.26432 0.0952269 0.242289
20016 5 0.260697 0.0176515 0.194672
17477 1 0.335872 0.111107 0.190102
17458 1 0.33057 0.046949 0.190289
20095 5 0.260967 0.0790747 0.191755
17464 5 0.36061 0.0813054 0.190702
20013 2 0.283485 0.085006 0.196915
20379 9 0.298829 0.0672327 0.209238
20089 4 0.28742 0.10979 0.196572
20019 3 0.286129 0.0785011 0.208891
20378 9 0.276214 0.0197546 0.214116
17466 6 0.325283 0.0502391 0.210599
17493 7 0.315648 0.0386349 0.214016
17494 7 0.331896 0.0591896 0.216459
17473 7 0.343222 0.101685 0.213468
14960 7 0.363347 0.0750682 0.218661
17548 7 0.294689 0.10501 0.217347
14918 6 0.349909 0.0775237 0.223202
14959 7 0.356437 0.0810086 0.230335
17469 5 0.360455 0.0105349 0.194499
17456 7 0.29234 0.0388092 0.243167
17457 7 0.296874 0.0645829 0.241546
20014 3 0.288301 0.0210193 0.20883
20012 2 0.282915 0.00977382 0.198022
17503 6 0.304877 0.0506203 0.2433
17499 3 0.369407 0.0832782 0.243608
17582 7 0.332213 0.102528 0.240747
20056 3 0.269863 0.0848284 0.247829
17583 7 0.313917 0.11659 0.234754
17544 6 0.322114 0.115911 0.241286
17508 6 0.33808 0.115503 0.209795
17578 6 0.298257 0.117617 0.221395
20101 7 0.267761 0.114581 0.230744
17472 7 0.32313 0.118056 0.213545
12408 7 0.481979 0.131785 0.233374
17427 4 0.365987 0.00872363 0.250454
17827 9 0.372146 0.130237 0.209498
14994 7 0.452729 0.235827 0.209941
17465 5 0.398559 0.0799975 0.187341
17813 9 0.381147 0.0943656 0.244343
17463 4 0.3828 0.0464567 0.194422
17460 2 0.381646 0.0715479 0.19512
17462 3 0.3885 0.0784666 0.206739
17386 2 0.382757 0.0219827 0.19693
17825 9 0.398394 0.011863 0.211544
17391 3 0.386862 0.0220291 0.209538
14906 1 0.432761 0.107871 0.187847
17392 5 0.400507 0.0140683 0.189211
17826 9 0.401881 0.0872804 0.206877
14849 1 0.433998 0.0457259 0.192857
14917 5 0.459916 0.0737692 0.193723
14837 5 0.459071 0.0145411 0.195363
14911 4 0.481083 0.108757 0.195144
14834 2 0.481946 0.083886 0.197457
14839 3 0.484593 0.0805324 0.209577
14955 6 0.422964 0.0444879 0.212018
15273 9 0.491807 0.0930256 0.212849
14922 7 0.430044 0.0443914 0.218519
14923 7 0.406346 0.0435903 0.21307
15308 7 0.464229 0.0637088 0.221853
14884 6 0.457482 0.0497048 0.225999
15297 7 0.46565 0.0358478 0.222377
15303 9 0.411287 0.0594041 0.24087
14868 8 0.453305 0.0506111 0.241209
14835 3 0.48352 0.0172242 0.2115
14874 3 0.423041 0.0507895 0.244909
14833 2 0.482075 0.00980981 0.19943
12328 7 0.457028 0.0958561 0.23495
14951 6 0.412494 0.106846 0.241671
14942 7 0.431479 0.106114 0.216318
12291 6 0.451689 0.103242 0.228523
14914 6 0.427928 0.108002 0.208839
14847 7 0.458004 0.0103524 0.230718
14904 7 0.423628 0.112284 0.236328
14875 4 0.468009 0.0748595 0.24603
14941 7 0.412707 0.115423 0.208783
12329 7 0.465066 0.110463 0.225076
15272 9 0.482586 0.0052025 0.216393
14905 7 0.401702 0.119717 0.241461
17860 7 0.367185 0.00841473 0.224617
22717 6 0.118545 0.132309 0.242139
22760 7 0.113089 0.147312 0.240826
22960 9 0.116489 0.240396 0.23554
25382 7 0.00483203 0.222067 0.240273
25309 7 0.0551253 0.127174 0.239277
1941 5 0.00224601 0.142606 0.193511
25343 6 0.0188148 0.228917 0.241129
22791 6 0.0827321 0.236539 0.228608
25267 5 0.101746 0.205059 0.191271
25265 5 0.100927 0.146104 0.191193
25348 7 0.0125064 0.170916 0.213538
25484 9 0.0953033 0.130189 0.215192
25347 7 0.0329231 0.171873 0.220762
25512 9 0.0138692 0.183373 0.238235
25303 3 0.0268473 0.179023 0.243361
25260 2 0.0858044 0.137646 0.199438
25264 5 0.0613653 0.143506 0.197459
25332 1 0.0303122 0.237397 0.194457
25276 1 0.0364319 0.174538 0.1942
25342 5 0.0605802 0.206225 0.196662
25337 4 0.0853238 0.237685 0.198616
25261 2 0.0838395 0.212937 0.198888
25266 3 0.0901496 0.206302 0.210427
25262 3 0.0923437 0.143978 0.211082
25485 9 0.0930592 0.219098 0.215075
22720 7 0.113909 0.16792 0.210916
25377 6 0.0282353 0.173323 0.213019
25507 7 0.0757201 0.193252 0.222506
25518 7 0.0698853 0.16512 0.221329
25314 6 0.0649849 0.180032 0.225456
25297 8 0.057079 0.177661 0.240187
22757 7 0.104547 0.190667 0.238049
22718 6 0.111387 0.178544 0.241816
25304 4 0.0637194 0.199285 0.249003
25378 6 0.0311363 0.231745 0.215914
22830 7 0.0683252 0.229949 0.22707
15030 7 0.409306 0.230312 0.238391
25381 7 0.0282354 0.215665 0.24143
25346 7 0.0264667 0.239243 0.222495
25299 5 0.0643687 0.152208 0.247033
14919 6 0.420933 0.182352 0.241211
25345 7 0.0189455 0.221889 0.21532
20099 7 0.238209 0.135096 0.208542
22795 7 0.127164 0.247 0.22136
22747 5 0.167021 0.217432 0.248036
22759 7 0.13598 0.135616 0.241533
22751 3 0.128414 0.238482 0.241811
22825 6 0.126307 0.241699 0.213883
20207 7 0.208592 0.232639 0.23613
22758 7 0.123133 0.17647 0.236111
20208 7 0.231388 0.228407 0.24099
22920 9 0.181365 0.133353 0.243492
22954 7 0.185137 0.13147 0.229129
22756 6 0.129363 0.172102 0.209832
22706 1 0.131849 0.175965 0.190329
22719 7 0.132964 0.178959 0.21649
22713 5 0.200194 0.207463 0.188729
20103 1 0.237841 0.175383 0.188607
20154 1 0.231866 0.23765 0.19027
22716 5 0.163955 0.141472 0.187079
22724 1 0.135149 0.237781 0.193299
22722 7 0.15997 0.179878 0.236063
22645 4 0.179638 0.137257 0.203474
22712 5 0.160995 0.207658 0.193381
22639 2 0.183494 0.150924 0.193462
22708 2 0.183855 0.200697 0.197047
22711 4 0.182887 0.174765 0.196793
22710 3 0.190536 0.207335 0.208611
22932 9 0.191484 0.193946 0.213145
20167 7 0.218112 0.22582 0.213041
20204 6 0.226868 0.23958 0.211497
20092 3 0.241135 0.174828 0.207908
22721 7 0.15026 0.162551 0.231427
20406 9 0.229155 0.178335 0.214405
22966 7 0.173549 0.225617 0.220237
22745 8 0.158839 0.238107 0.23902
20166 6 0.191142 0.170503 0.21954
20206 7 0.175978 0.173367 0.223206
22755 6 0.151634 0.17822 0.229701
20205 7 0.187755 0.160888 0.213168
22762 6 0.176132 0.238316 0.226312
20165 6 0.216801 0.232424 0.243546
22679 3 0.16841 0.141194 0.244634
25239 7 0.0029268 -0.000767109 0.238934
17537 4 0.384605 0.171475 0.197088
17549 7 0.293367 0.130023 0.2171
20169 7 0.263485 0.232121 0.227068
20100 7 0.256535 0.127104 0.239814
17854 9 0.330733 0.242011 0.211889
20094 5 0.303562 0.203381 0.188574
17814 9 0.359603 0.134147 0.24499
20170 7 0.275474 0.216903 0.219253
17538 5 0.363405 0.202493 0.189095
17545 6 0.336586 0.239613 0.243221
20164 5 0.262847 0.206807 0.189929
20090 5 0.260237 0.133865 0.189221
17551 1 0.337903 0.23576 0.188681
17531 1 0.331775 0.173697 0.188536
20203 6 0.275905 0.222223 0.227015
20368 9 0.274049 0.208663 0.241044
17543 5 0.362193 0.140261 0.191349
20085 2 0.282981 0.134728 0.19412
20086 8 0.270479 0.171864 0.211988
20087 2 0.284934 0.211316 0.195898
20159 4 0.283391 0.237144 0.197881
20088 5 0.278814 0.149623 0.203601
20093 4 0.280516 0.195753 0.204968
17547 7 0.336465 0.150857 0.211138
17540 3 0.343103 0.232522 0.207507
17579 6 0.329601 0.164544 0.208816
17546 7 0.31919 0.168065 0.214847
20136 6 0.290511 0.172154 0.224741
20413 7 0.291163 0.187156 0.229247
20402 7 0.285103 0.160772 0.230698
20127 3 0.275802 0.198321 0.247012
17571 3 0.374892 0.208595 0.244331
17580 7 0.346249 0.226412 0.244944
20123 3 0.271595 0.150368 0.246266
17617 7 0.296336 0.240702 0.226262
17534 8 0.3728 0.235911 0.210898
17815 9 0.383161 0.197984 0.240528
20367 9 0.265659 0.165763 0.245387
17581 7 0.348297 0.250907 0.242683
14952 3 0.471177 0.20333 0.245481
14916 5 0.501272 0.199385 0.185932
12366 6 0.489789 0.127578 0.226851
15262 9 0.472264 0.21442 0.239694
14908 2 0.482998 0.134086 0.195398
17504 3 0.37288 0.136868 0.249017
14985 4 0.48413 0.233572 0.195274
15275 9 0.472096 0.187989 0.206739
14997 7 0.389124 0.152223 0.222384
17461 2 0.384334 0.146233 0.195523
14910 3 0.485926 0.14275 0.207186
14957 7 0.435258 0.185583 0.238084
14921 7 0.445881 0.159515 0.206641
14958 7 0.414489 0.174462 0.235235
12407 7 0.48407 0.138274 0.221585
15026 6 0.390669 0.161212 0.228649
17467 3 0.386215 0.135715 0.207002
17533 2 0.385153 0.196635 0.194619
14991 5 0.460497 0.200477 0.190095
17850 7 0.371742 0.232655 0.231782
14996 7 0.385278 0.15175 0.23426
14909 2 0.48414 0.207388 0.19411
14956 6 0.437788 0.173331 0.208412
14992 6 0.411075 0.241899 0.243747
17584 6 0.380755 0.24179 0.225466
14925 1 0.437311 0.171889 0.188073
14915 3 0.485913 0.196894 0.205525
14920 7 0.426354 0.167373 0.213205
12353 7 0.500047 0.191225 0.242733
14947 3 0.468921 0.147975 0.244719
17536 5 0.383613 0.213752 0.203213
15261 9 0.477514 0.161725 0.24621
14912 5 0.461313 0.143374 0.190768
22796 7 0.11364 0.250057 0.21158
25178 3 0.0377859 0.0425907 0.297887
25245 3 0.029545 0.11545 0.301447
25251 5 0.0231761 0.0542158 0.279164
25246 4 0.0389843 0.0824549 0.290755
25243 2 0.038544 0.107449 0.290336
25224 1 0.094584 0.0844622 0.285646
25179 5 0.0642158 0.05085 0.283625
25173 2 0.041122 0.0578329 0.28778
22624 5 0.125642 0.0551083 0.28437
25170 1 0.0901663 0.0221255 0.285496
25232 5 0.0897498 0.0830191 0.264217
25230 5 0.0876475 0.0226227 0.263978
22671 1 0.115854 0.0516865 0.264888
25171 1 0.0212993 0.0536716 0.260307
25229 5 0.045506 0.0197959 0.261005
25294 1 0.0155116 0.112887 0.262458
25306 5 0.0463662 0.0809828 0.258954
25226 2 0.0693707 0.089584 0.256675
25225 2 0.0678349 0.013487 0.257559
25496 9 0.0388043 0.0516266 0.304422
25288 6 0.10225 0.0813352 0.305731
25218 6 0.0964175 0.0240464 0.306102
25497 9 0.0190297 0.106048 0.305002
22619 1 0.120525 0.115438 0.260476
25300 4 0.0678502 0.115065 0.25602
25257 7 0.114519 0.0912021 0.305045
25256 7 0.110912 0.0676635 0.307702
25247 5 0.0211349 0.114798 0.282468
25248 5 0.0621634 0.113805 0.288177
25495 9 0.0391106 0.0129357 0.301513
25184 7 0.105592 0.0332177 0.310648
1931 7 0.00863506 0.00816257 0.306397
1929 7 0.000556822 0.0637422 0.308932
25183 7 0.0877761 0.0162843 0.311538
22699 5 0.120477 0.113912 0.282892
22622 3 0.137429 0.0515536 0.305101
22623 4 0.142827 0.0209147 0.291605
22681 5 0.145964 0.023356 0.260335
22620 2 0.142629 0.0456909 0.292528
19999 4 0.231454 0.0400728 0.299286
19993 2 0.23937 0.0571608 0.291311
20068 2 0.240083 0.107279 0.293247
20071 4 0.237196 0.0818695 0.294913
22625 5 0.165928 0.0548546 0.290338
22627 5 0.163088 0.111999 0.285849
22618 1 0.187638 0.0820232 0.283562
20076 5 0.223078 0.0534374 0.281931
22600 1 0.194708 0.0197243 0.287148
22609 5 0.185693 0.0244148 0.269279
22678 5 0.186093 0.0865937 0.265127
19990 1 0.220865 0.0520601 0.265425
22677 5 0.144148 0.0831228 0.259035
20129 5 0.244841 0.0851025 0.263629
20053 5 0.242852 0.0196668 0.261152
22602 2 0.16986 0.0286583 0.259969
22673 2 0.168182 0.0781279 0.257011
22676 4 0.171235 0.0539312 0.257357
19998 3 0.195076 0.0169143 0.306456
19992 8 0.225581 0.0181732 0.308031
20119 1 0.217876 0.117373 0.265635
22943 9 0.148569 0.0444705 0.309365
20072 5 0.222203 0.114372 0.285388
20391 9 0.239751 0.110565 0.310185
22626 3 0.136142 0.11275 0.301114
22621 2 0.140148 0.121217 0.28984
20409 9 0.183532 0.0242312 0.311829
20070 3 0.236571 0.120535 0.304174
20000 5 0.26266 0.0510991 0.287043
17448 5 0.362299 0.114803 0.286372
17440 8 0.324063 0.0824023 0.307031
17446 3 0.292959 0.0858463 0.306114
17442 5 0.328891 0.0592158 0.298719
17447 4 0.330296 0.102722 0.297151
17443 4 0.338883 0.0212218 0.292398
17439 2 0.339066 0.0458286 0.289623
20048 1 0.294102 0.0838618 0.286907
19989 1 0.287557 0.0202049 0.285484
17445 5 0.363033 0.0535692 0.28691
17444 5 0.321012 0.0499734 0.281336
20057 5 0.285981 0.086083 0.266589
17495 1 0.312606 0.0510122 0.263453
17506 5 0.342652 0.0156429 0.263767
20054 5 0.283169 0.020197 0.265125
17438 1 0.318683 0.116424 0.262068
17501 5 0.342589 0.0852293 0.259282
17421 2 0.365134 0.025646 0.259349
20050 2 0.267425 0.0930593 0.259423
20049 2 0.265283 0.0120002 0.257013
17497 2 0.365251 0.0752593 0.255904
20040 6 0.295917 0.0213084 0.3059
17500 4 0.365914 0.0501172 0.255452
20073 5 0.263702 0.112678 0.289083
20124 4 0.268192 0.118046 0.259092
17857 9 0.284877 0.100653 0.307117
17524 5 0.321656 0.11848 0.279646
20004 7 0.307025 0.00946827 0.304953
17441 2 0.338582 0.119452 0.28912
20005 7 0.304982 0.0339837 0.30777
17502 5 0.384676 0.0829217 0.262626
17428 5 0.383644 0.021752 0.267339
17437 1 0.388564 0.0839296 0.284592
15286 9 0.425186 0.0403028 0.305698
14822 3 0.438367 0.0500612 0.304682
14891 4 0.439048 0.0830119 0.293041
14817 2 0.438504 0.0576344 0.292719
14887 2 0.439586 0.107766 0.289917
14823 5 0.459932 0.0485719 0.287362
17418 1 0.391802 0.0191954 0.285169
14893 5 0.462642 0.115577 0.286596
14897 5 0.419744 0.0497542 0.285579
14892 5 0.423119 0.110571 0.280648
14866 1 0.490851 0.0799617 0.284912
14814 1 0.485487 0.0185676 0.286104
14873 5 0.482282 0.0164687 0.265492
14876 5 0.4886 0.0783294 0.26323
14815 1 0.418423 0.0514516 0.263726
14943 1 0.414489 0.111682 0.26264
14954 5 0.447092 0.0801456 0.261464
17412 6 0.398757 0.022123 0.305882
14869 2 0.469072 0.0877184 0.256341
14872 5 0.440767 0.0124911 0.262749
14867 2 0.463477 0.0107572 0.257774
17380 7 0.410608 0.0109394 0.30671
14948 4 0.467531 0.11274 0.255044
17379 7 0.387732 0.0198868 0.311634
14860 6 0.498741 0.0829591 0.305082
14890 5 0.432124 0.121829 0.2989
25296 2 0.0666872 0.139622 0.257846
25241 1 0.086321 0.144866 0.285259
25249 3 0.038861 0.180658 0.303211
25360 6 0.0906788 0.215852 0.302936
25320 4 0.039155 0.210677 0.290671
25317 2 0.0390755 0.235236 0.291403
25295 1 0.0900319 0.209904 0.282997
25250 5 0.0631383 0.177664 0.28675
25244 2 0.0403814 0.185418 0.290956
22695 5 0.120735 0.177524 0.281506
25325 5 0.0218418 0.177376 0.283432
25302 5 0.0869893 0.146394 0.264198
25305 5 0.0834913 0.21069 0.26533
22742 1 0.113804 0.176044 0.262186
25301 5 0.0446999 0.145842 0.262941
25242 1 0.0200433 0.178084 0.262642
25376 5 0.0436409 0.217813 0.262924
25298 2 0.0663115 0.218076 0.257599
25289 6 0.0856872 0.155703 0.305482
25366 1 0.015216 0.240494 0.260899
25331 7 0.0977615 0.231004 0.302901
25498 9 0.0400282 0.195686 0.307363
25371 4 0.0708941 0.24205 0.253444
22690 1 0.118826 0.239827 0.260709
22773 5 0.121889 0.242281 0.280279
25322 5 0.0602572 0.243156 0.285748
25330 7 0.0807085 0.218603 0.308919
25255 7 0.101121 0.160497 0.304306
25321 5 0.0191241 0.245058 0.284579
25319 3 0.0350949 0.245529 0.302553
22945 9 0.117121 0.190163 0.299265
22944 9 0.140174 0.124095 0.306731
22697 3 0.133784 0.242431 0.300335
22693 3 0.128814 0.17951 0.300585
22694 4 0.139589 0.146678 0.290908
22691 2 0.13813 0.17108 0.289525
22748 4 0.167452 0.176277 0.254149
22674 2 0.167515 0.150268 0.256327
22754 5 0.145531 0.142556 0.260733
20202 5 0.244522 0.205929 0.26022
22672 1 0.190748 0.146141 0.285181
20142 4 0.236085 0.208382 0.288455
20147 5 0.221084 0.172268 0.284372
22696 5 0.162468 0.177714 0.287244
20074 3 0.23542 0.180308 0.303099
20069 2 0.239283 0.182949 0.290873
22689 1 0.185981 0.211127 0.285974
20392 9 0.227022 0.166658 0.304461
20139 2 0.239505 0.233475 0.290185
20067 1 0.218796 0.178911 0.263547
22680 5 0.185972 0.14412 0.264225
22750 5 0.18331 0.204545 0.266407
22749 5 0.143622 0.207534 0.261089
20125 5 0.244963 0.152177 0.261417
22744 2 0.166781 0.20107 0.257069
22737 6 0.189384 0.216572 0.305906
22736 6 0.197876 0.145758 0.306051
20393 9 0.227102 0.225332 0.305384
22698 5 0.16232 0.240062 0.286035
20190 1 0.21299 0.239013 0.262706
20141 3 0.237296 0.235975 0.302551
20143 5 0.22143 0.24257 0.282816
22703 7 0.200975 0.207103 0.308775
22702 7 0.178672 0.217338 0.311547
22692 2 0.139501 0.248338 0.288655
22704 7 0.211676 0.137558 0.305665
22963 7 0.137873 0.217732 0.311913
22946 9 0.139096 0.253702 0.30548
20144 5 0.262255 0.241672 0.286582
17572 4 0.370958 0.175034 0.256792
20126 5 0.284855 0.150492 0.265901
20075 5 0.261647 0.174625 0.288247
20066 1 0.287051 0.14679 0.287221
17516 2 0.3397 0.169087 0.293702
17518 3 0.34178 0.179808 0.305143
20079 7 0.310074 0.199948 0.307053
20114 6 0.297009 0.207875 0.305432
17519 4 0.336692 0.143485 0.293729
17521 5 0.361551 0.174643 0.288403
20120 1 0.292162 0.207883 0.285301
17520 5 0.320993 0.179623 0.286713
17595 5 0.323443 0.238392 0.282123
17567 1 0.316151 0.177015 0.265307
20128 5 0.286365 0.20834 0.266807
17577 5 0.344334 0.144339 0.261475
17573 5 0.344762 0.20365 0.259093
17498 2 0.368135 0.150546 0.259661
20121 2 0.267267 0.142973 0.258078
17569 2 0.368514 0.199982 0.255709
20122 2 0.269471 0.210945 0.257681
20196 4 0.271063 0.236557 0.253501
20113 6 0.280883 0.142846 0.308001
17839 9 0.346388 0.168082 0.310225
17529 7 0.367763 0.224538 0.302865
17530 7 0.366742 0.200282 0.303979
17523 5 0.364242 0.237625 0.28776
17515 1 0.320005 0.238333 0.262448
20081 7 0.266786 0.134192 0.306885
17522 3 0.334632 0.239802 0.301956
17517 2 0.340663 0.245768 0.289794
17561 6 0.376763 0.212536 0.305375
15020 4 0.470107 0.240079 0.254121
17505 5 0.385859 0.14365 0.267104
17574 5 0.384604 0.209237 0.264269
17514 1 0.385034 0.206176 0.284835
14945 2 0.465345 0.138054 0.256534
14886 1 0.418802 0.177585 0.26142
14894 3 0.394681 0.143269 0.305169
14972 5 0.420623 0.180307 0.280067
14896 5 0.460586 0.175698 0.28639
14888 8 0.42567 0.145128 0.306949
12342 3 0.492895 0.203631 0.304132
14895 4 0.428405 0.166292 0.297383
14964 2 0.437903 0.233463 0.291985
14967 4 0.435296 0.208319 0.293316
14889 2 0.437155 0.183445 0.289194
17496 1 0.392895 0.142811 0.286636
14944 1 0.490659 0.209286 0.284307
14885 1 0.487779 0.14652 0.284093
14953 5 0.482904 0.209341 0.26469
14936 6 0.490144 0.14435 0.305131
14950 5 0.483538 0.144544 0.26407
15025 5 0.442437 0.210131 0.260552
14949 5 0.442455 0.146563 0.260358
14946 2 0.465865 0.215299 0.2564
14969 5 0.460405 0.240813 0.287255
15015 1 0.412656 0.242009 0.263865
15305 9 0.383284 0.152221 0.309516
14968 5 0.419563 0.240047 0.28385
12753 9 0.481325 0.212384 0.309183
14900 7 0.479567 0.146745 0.310744
14966 3 0.43427 0.243701 0.303816
14377 1 0.441596 0.21171 0.444959
16924 6 0.349532 0.226997 0.498515
24544 6 0.0924668 0.0264243 0.333617
24654 7 0.0869048 0.0856996 0.329597
24655 7 0.107922 0.082933 0.335552
24614 6 0.0924069 0.0800713 0.336632
24820 9 0.0218727 0.0604827 0.335318
24550 1 0.089485 0.0829454 0.356711
24571 2 0.0365458 0.0587133 0.350636
24576 3 0.0262597 0.0487769 0.34015
24577 5 0.0604403 0.0530606 0.351321
24639 2 0.0371596 0.109589 0.35029
24643 4 0.0353869 0.0843316 0.350287
24644 5 0.0195312 0.117392 0.358331
24645 5 0.0595598 0.116932 0.354305
24649 5 0.0222808 0.0525711 0.359873
24568 1 0.0852452 0.0213745 0.353627
22022 5 0.120384 0.051953 0.357069
22097 5 0.119749 0.113584 0.355779
24582 7 0.097958 0.0413127 0.335085
24581 7 0.0761967 0.0296045 0.332885
22266 9 0.118012 0.000138193 0.336227
1825 7 0.0034009 0.0252853 0.335704
24557 5 0.0855868 0.0196616 0.372733
22267 9 0.136625 0.0726715 0.338796
24560 5 0.0879756 0.0845536 0.378178
24620 1 0.0134719 0.118127 0.377004
22665 6 0.165538 0.0397624 0.322437
22634 7 0.153692 0.0458435 0.326498
22268 9 0.137372 0.113114 0.330661
22020 3 0.135344 0.0569751 0.338574
22024 3 0.134531 0.104777 0.337366
22032 7 0.207453 0.0377077 0.335676
22021 4 0.139781 0.0196175 0.351208
20065 6 0.243741 0.0211961 0.320459
22631 7 0.179553 0.0706409 0.331936
22632 7 0.184081 0.0942108 0.330979
19714 9 0.222485 0.069992 0.335057
22666 6 0.191351 0.0811366 0.333643
19468 3 0.234063 0.114284 0.336492
19398 3 0.230676 0.056957 0.337597
19466 2 0.239493 0.10924 0.348792
19469 4 0.2399 0.084746 0.351423
19393 2 0.23861 0.059258 0.349324
19470 5 0.220297 0.119125 0.355263
19474 5 0.222774 0.049586 0.357625
22016 1 0.187923 0.0846243 0.35365
22018 2 0.139721 0.0454238 0.349665
22023 5 0.162526 0.0533733 0.354201
22025 5 0.161344 0.114148 0.350483
21925 1 0.192333 0.0202943 0.356247
21991 6 0.198574 0.0245507 0.3366
22019 2 0.137192 0.120395 0.347137
22633 7 0.176677 0.03783 0.327819
20416 7 0.243777 0.0366928 0.324499