ITEM: TIMESTEP
8000
ITEM: NUMBER OF ATOMS
25520
ITEM: BOX BOUNDS pp pp pp
6.5472179500000005e-01 5.9043821794999999e+01
-8.9085736299999996e-01 5.8061142637000003e+01
-1.0494733796999999e+01 1.0977046620300000e+02
ITEM: ATOMS id type xs ys zs
25292 7 0.072363 0.0697092 0.111502
25293 7 0.0773799 0.0870412 0.1197
25252 6 0.0813279 0.0714933 0.118073
22906 9 0.112419 0.0742131 0.119398
22740 7 0.169657 0.113412 0.114271
22630 6 0.146623 0.100903 0.102135
22667 7 0.158288 0.0940602 0.0976473
20041 7 0.252816 0.0196698 0.111223
22668 7 0.142277 0.0891889 0.107032
22700 6 0.184868 0.118118 0.11761
22741 7 0.189554 0.129896 0.112187
20106 3 0.236575 0.0883719 0.119204
20353 9 0.221746 0.0889251 0.115296
20115 7 0.249672 0.121271 0.0946445
22662 3 0.128327 0.0727632 0.121873
22905 9 0.125006 0.0401179 0.120808
20036 3 0.228306 0.0134163 0.12142
20352 9 0.211801 0.0121168 0.119099
22658 3 0.132954 0.026616 0.121397
20003 6 0.267071 0.0188997 0.10723
20042 7 0.273269 0.00493504 0.109788
20117 7 0.279902 0.0419862 0.115418
17490 7 0.341518 0.128062 0.106799
17451 6 0.348177 0.113348 0.104983
17489 7 0.346759 0.105532 0.112075
20077 6 0.282584 0.0560023 0.119733
17480 3 0.331786 0.0205368 0.123288
17799 9 0.335446 0.0370231 0.12271
17800 9 0.317291 0.0705395 0.12011
17484 3 0.332076 0.0769164 0.121666
20118 7 0.272887 0.0673918 0.116473
14826 6 0.474256 0.00234978 0.111969
14939 7 0.484541 0.0561896 0.117228
15022 5 0.497609 0.246762 0.240977
14862 7 0.462598 0.00897516 0.116721
17565 7 0.378068 0.10643 0.115831
25326 6 0.0225602 0.20471 0.118215
25365 7 0.0204226 0.206954 0.126284
25364 7 0.0324371 0.217051 0.116383
22750 5 0.194457 0.182959 0.24792
22726 8 0.107991 0.177827 0.119906
14987 5 0.499313 0.24209 0.165356
14919 6 0.426761 0.146578 0.223694
20078 6 0.234501 0.127837 0.0960019
22701 6 0.138259 0.200484 0.102579
22738 7 0.152724 0.19463 0.104289
22739 7 0.134399 0.209401 0.109255
20148 6 0.186942 0.178329 0.121646
20188 7 0.202086 0.170905 0.121974
20189 7 0.191025 0.19305 0.117717
20174 8 0.216205 0.245952 0.119424
20110 3 0.233972 0.142365 0.119196
20354 9 0.228556 0.126669 0.119354
20116 7 0.236275 0.13479 0.103214
20180 3 0.184671 0.245496 0.121173
14954 5 0.452861 0.0473119 0.247561
17566 7 0.372609 0.128206 0.121305
17802 9 0.32798 0.215488 0.116598
17554 3 0.33521 0.154171 0.121571
17801 9 0.334807 0.170549 0.122205
17637 7 0.365392 0.232233 0.12154
17558 3 0.332504 0.204714 0.121867
14899 6 0.453817 0.164881 0.105965
14937 7 0.453704 0.177041 0.111089
14973 6 0.480861 0.207374 0.117297
15013 7 0.480229 0.200459 0.110256
17525 6 0.382283 0.114133 0.122232
14938 7 0.446352 0.153025 0.1099
15014 7 0.464185 0.208546 0.11977
15248 9 0.414822 0.134955 0.12111
17636 7 0.389477 0.235275 0.117141
17596 6 0.379638 0.240007 0.12334
15002 3 0.432172 0.211407 0.122365
25287 5 0.0136297 0.019214 0.14839
25283 5 0.0524098 0.0796625 0.138223
25282 5 0.0126165 0.0833692 0.14766
25281 4 0.0230243 0.0512015 0.134116
25280 5 0.0174772 0.0927664 0.128771
25278 8 0.00497946 0.120701 0.12736
25277 2 0.0261269 0.0769679 0.137307
25275 1 0.0803884 0.116401 0.143278
25268 5 0.0460209 0.0614226 0.167478
25265 5 0.0874908 0.114786 0.163054
25264 5 0.0508667 0.118652 0.173028
25258 1 0.0197984 0.0860294 0.168511
22660 5 0.110222 0.0247227 0.138619
25215 5 0.0503605 0.0178326 0.138996
25214 3 0.0121381 0.00819347 0.129603
25209 2 0.0255656 0.0244122 0.137507
25207 1 0.0243726 0.0191218 0.168903
25198 5 0.0859783 0.0517292 0.162056
25191 2 0.0704915 0.0595144 0.17202
22735 5 0.112691 0.0805507 0.141115
25188 1 0.0799056 0.0545043 0.141728
25263 4 0.0749354 0.0849737 0.175741
25260 2 0.0751568 0.111244 0.174216
22635 1 0.119892 0.0220799 0.161864
22655 1 0.123474 0.0807654 0.163716
25262 3 0.0875072 0.123293 0.183756
25197 4 0.0675952 0.0434466 0.181471
20029 1 0.227751 0.0205995 0.161794
20031 2 0.229332 0.0257927 0.132865
20083 1 0.219978 0.0831567 0.159484
20104 2 0.23307 0.0777186 0.131063
20107 4 0.229141 0.0517077 0.130932
20108 5 0.211461 0.0866781 0.136971
20112 5 0.208691 0.0203309 0.140625
22636 1 0.187332 0.115151 0.139534
22637 2 0.174518 0.04852 0.170968
22639 2 0.175697 0.119472 0.168486
22642 5 0.152463 0.0535012 0.164755
22643 5 0.195003 0.0559827 0.163757
22646 5 0.194217 0.108788 0.161443
22654 1 0.179322 0.0533493 0.142361
22656 2 0.131806 0.0164462 0.133371
22657 2 0.130846 0.0877405 0.13278
22661 5 0.152858 0.021361 0.139865
22663 5 0.154121 0.0822213 0.137676
22716 5 0.151353 0.112756 0.164337
22729 4 0.127044 0.114687 0.132222
22641 4 0.176134 0.0225777 0.174149
22645 4 0.172546 0.110494 0.180208
22640 5 0.170114 0.0623516 0.181626
22650 7 0.139606 0.0351637 0.185469
20060 6 0.227664 0.0219138 0.184002
20037 5 0.250408 0.0193375 0.139953
20109 5 0.253396 0.0847337 0.138963
17458 1 0.322136 0.0206912 0.164503
17464 5 0.354127 0.0549671 0.165306
17477 1 0.327501 0.0861705 0.1616
17478 2 0.331238 0.0113528 0.135285
17479 2 0.332739 0.0893907 0.133296
17482 5 0.309149 0.0166803 0.141301
17483 5 0.348901 0.022464 0.142737
17485 5 0.352472 0.0812049 0.140865
17543 5 0.355443 0.114457 0.166168
17555 4 0.331787 0.115298 0.132505
17560 5 0.311318 0.0824828 0.139983
20011 1 0.28381 0.0517136 0.141227
20013 2 0.274196 0.0591939 0.170468
20020 5 0.293552 0.0489716 0.163635
20085 2 0.272747 0.110898 0.169113
20090 5 0.252535 0.114228 0.160724
20091 5 0.294526 0.121033 0.163165
20095 5 0.253142 0.0530302 0.164085
20102 1 0.28004 0.114481 0.139828
20089 4 0.27471 0.0847286 0.171679
17508 6 0.327875 0.0839986 0.183128
20019 3 0.271247 0.0449167 0.181639
20379 9 0.254834 0.0423443 0.182888
17461 2 0.37697 0.118581 0.17346
17462 3 0.373734 0.0569366 0.18482
17467 3 0.372809 0.106229 0.185016
20088 5 0.265768 0.124349 0.179423
17466 6 0.320029 0.0176402 0.186527
17473 7 0.342677 0.0861096 0.186304
17493 7 0.303337 0.0163745 0.186572
22670 7 0.165442 0.00568185 0.12298
14898 6 0.484178 0.0596835 0.124863
14832 1 0.484198 0.0489816 0.145998
14834 2 0.477774 0.055614 0.17567
14849 1 0.430786 0.0192144 0.16627
14851 2 0.430872 0.023172 0.136746
14856 3 0.429058 0.0105591 0.125516
14857 5 0.452236 0.0166604 0.143637
14906 1 0.425444 0.0796577 0.16623
14908 2 0.477344 0.107559 0.17448
14912 5 0.457055 0.113763 0.167029
14917 5 0.458839 0.047058 0.168239
14924 1 0.478743 0.112189 0.145511
14926 2 0.431199 0.0755029 0.136484
14928 3 0.432952 0.0896599 0.125742
14929 4 0.43147 0.0492713 0.134331
14930 5 0.409807 0.0814269 0.143237
14931 5 0.452381 0.0790688 0.143174
14934 5 0.407844 0.0189943 0.143189
14940 7 0.468036 0.0640469 0.125839
14913 5 0.499382 0.112776 0.168572
15247 9 0.430143 0.105664 0.127075
17459 1 0.385137 0.113876 0.145071
17460 2 0.373501 0.0478006 0.172521
17465 5 0.396481 0.0496885 0.166171
17468 5 0.397359 0.10904 0.166749
17476 1 0.374786 0.0507623 0.144015
14911 4 0.475778 0.0818291 0.177171
17463 4 0.370129 0.0215917 0.174096
17826 9 0.368916 0.0727837 0.184722
14923 7 0.402072 0.017534 0.183906
14839 3 0.476476 0.0431308 0.187104
14910 3 0.473489 0.122589 0.185144
22733 4 0.12187 0.200636 0.126293
25253 6 0.0804538 0.126187 0.121852
25459 9 0.0193456 0.235166 0.140143
25359 5 0.019336 0.14793 0.156691
25356 5 0.0542798 0.208482 0.149025
25355 5 0.0164711 0.210165 0.160062
25354 4 0.0255165 0.180747 0.145261
25353 3 0.0142009 0.220204 0.140479
25351 2 0.028487 0.206041 0.149055
25349 1 0.0818705 0.239143 0.14747
25342 5 0.0525753 0.17845 0.177691
25338 5 0.0532697 0.240919 0.178738
25334 2 0.0779397 0.234146 0.179378
25332 1 0.0211683 0.207594 0.180755
25291 7 0.0722996 0.140953 0.121496
25290 7 0.0960115 0.128606 0.123397
25286 5 0.0529115 0.146106 0.144223
25285 4 0.015973 0.141345 0.136704
25279 2 0.0281742 0.154373 0.145447
25276 1 0.0228881 0.146858 0.17712
25267 5 0.0913992 0.173775 0.167556
25261 2 0.0783477 0.182746 0.177642
25259 1 0.0862438 0.177563 0.144957
22730 5 0.117739 0.143909 0.145839
22732 3 0.0780512 0.175796 0.12464
22957 9 0.0629162 0.176086 0.120222
22807 5 0.113108 0.21394 0.144028
25337 4 0.080217 0.208528 0.177986
25339 5 0.0904542 0.245309 0.16988
22706 1 0.121894 0.146091 0.163251
22728 5 0.1202 0.153867 0.126257
20176 5 0.232736 0.220614 0.122771
20103 1 0.227674 0.14527 0.158985
20105 2 0.236579 0.152889 0.130778
20154 1 0.219623 0.209971 0.162194
20173 2 0.2369 0.205595 0.132611
20177 4 0.238635 0.179602 0.12944
20178 5 0.214685 0.210952 0.139068
20183 5 0.215487 0.147007 0.13761
22707 1 0.186766 0.240448 0.141288
22708 2 0.174566 0.172332 0.169789
22709 2 0.172245 0.247476 0.172251
22712 5 0.153138 0.180778 0.164543
22713 5 0.194955 0.181951 0.163416
22715 5 0.189109 0.240256 0.163078
22723 1 0.181006 0.17866 0.139496
22724 1 0.124005 0.208324 0.164343
22725 2 0.130937 0.139133 0.135119
22727 2 0.132098 0.215623 0.135335
22731 5 0.153961 0.14648 0.138906
22734 5 0.154883 0.206446 0.139557
22790 5 0.148546 0.246822 0.167418
22802 4 0.131903 0.24151 0.132239
22711 4 0.174324 0.146305 0.16801
20092 3 0.222949 0.14236 0.178458
22714 3 0.174731 0.232946 0.182811
22710 3 0.179024 0.17686 0.182659
22719 7 0.146557 0.133284 0.182028
22932 9 0.167738 0.188395 0.185031
22825 6 0.134343 0.208713 0.185445
20406 9 0.208311 0.153243 0.18024
22795 7 0.148029 0.217141 0.186291
22933 9 0.190452 0.228483 0.184752
20111 5 0.255361 0.142071 0.13789
17531 1 0.323157 0.14561 0.162054
17538 5 0.355243 0.171956 0.164099
17551 1 0.327415 0.207621 0.162256
17552 2 0.333918 0.141834 0.132952
17553 2 0.331275 0.214507 0.133804
17556 5 0.312112 0.149585 0.138557
17557 5 0.354199 0.14905 0.139834
17559 5 0.350626 0.205359 0.141195
17612 5 0.355389 0.236287 0.163848
17625 4 0.334908 0.240389 0.134048
17631 5 0.308755 0.207617 0.139695
20084 1 0.286924 0.178673 0.140877
20087 2 0.273547 0.182416 0.169674
20094 5 0.29475 0.175127 0.163006
20156 2 0.273641 0.234087 0.173918
20160 5 0.251772 0.240146 0.168507
20161 5 0.294327 0.242258 0.167135
20164 5 0.252536 0.184169 0.162542
20171 1 0.27717 0.243157 0.145917
20179 5 0.256895 0.213405 0.139864
20159 4 0.277375 0.207579 0.174445
20093 4 0.265528 0.166404 0.179037
17536 5 0.370851 0.185026 0.181147
17540 3 0.327803 0.203913 0.182506
17541 4 0.367835 0.231273 0.182509
17533 2 0.376833 0.169566 0.171174
17550 1 0.378334 0.177777 0.143112
17537 4 0.38272 0.144648 0.174298
14907 1 0.484236 0.177694 0.145607
14909 2 0.479108 0.182462 0.173676
14925 1 0.433183 0.14689 0.163354
14927 2 0.431852 0.1501 0.134905
14932 3 0.43013 0.138666 0.123499
14933 5 0.454085 0.143469 0.141153
14979 1 0.424092 0.208495 0.164032
14981 2 0.479005 0.233977 0.172355
14986 5 0.456713 0.232806 0.165417
14991 5 0.458298 0.175855 0.16648
14998 1 0.478786 0.239395 0.143801
15000 2 0.43116 0.201952 0.134632
15003 4 0.427862 0.176015 0.134731
15004 5 0.411194 0.211294 0.141151
15005 5 0.452061 0.208904 0.141393
15008 5 0.412533 0.143447 0.142594
15249 9 0.42998 0.227821 0.122303
17532 1 0.38386 0.240989 0.144735
17535 2 0.371786 0.245763 0.172332
17539 5 0.397208 0.178258 0.164796
17542 5 0.395731 0.242679 0.167824
14985 4 0.483331 0.208714 0.175244
14995 7 0.403261 0.195071 0.181877
15275 9 0.472155 0.156226 0.185295
14994 7 0.402423 0.220718 0.184155
15027 6 0.412453 0.207007 0.185003
14921 7 0.412228 0.149473 0.182038
15262 9 0.465887 0.173774 0.218677
14915 3 0.479504 0.171641 0.185424
17563 7 0.348106 0.248936 0.106581
25517 7 0.0808539 0.00508479 0.209069
25510 9 0.0187364 0.0290579 0.192892
25472 9 0.0622132 0.0365913 0.228895
25471 9 0.0815249 0.00936779 0.231073
25312 7 0.0164578 0.0937289 0.222913
25311 7 0.0303472 0.114204 0.227193
25310 7 0.0761357 0.0711907 0.219991
25308 6 0.0311232 0.0920279 0.189568
25300 4 0.0743892 0.0825904 0.240101
25296 2 0.0745738 0.109371 0.24355
25272 7 0.0253575 0.0796979 0.194599
25270 6 0.0764142 0.0841189 0.215505
25269 6 0.0290629 0.0965873 0.227907
25240 6 0.0818273 0.0202681 0.204553
25231 3 0.0759707 0.0450353 0.231052
25226 2 0.0745998 0.057482 0.242328
22685 7 0.124701 0.0494932 0.205157
25196 3 0.0320178 0.0242881 0.188454
25190 8 0.0636938 0.0209338 0.190835
22760 7 0.105531 0.0902228 0.231133
25309 7 0.0680451 0.0940077 0.22065
25271 7 0.046201 0.0947518 0.193134
22958 9 0.120206 0.103814 0.183741
25506 7 0.0751096 0.0320651 0.210519
22687 7 0.109577 0.0047859 0.221661
25306 5 0.0522016 0.0502276 0.247937
25237 7 0.0326806 0.00445275 0.221028
25201 6 0.0390176 0.0121178 0.22807
25171 1 0.0258491 0.0241328 0.24888
22717 6 0.121642 0.090929 0.229514
25484 9 0.0831974 0.118103 0.191064
22722 7 0.119146 0.130465 0.214425
25294 1 0.0211859 0.0863467 0.247648
17492 7 0.369026 0.00252747 0.123428
22680 5 0.192234 0.116497 0.246719
22644 3 0.129762 0.0894057 0.183614
22754 5 0.151451 0.117704 0.246084
22683 6 0.123634 0.0322121 0.183298
22759 7 0.122549 0.0980206 0.222272
22651 7 0.117862 0.0247025 0.190058
22684 7 0.105873 0.0599618 0.212358
20096 6 0.22792 0.0250462 0.224199
20097 6 0.216919 0.0931392 0.224713
20100 7 0.188002 0.0482395 0.20374
20101 7 0.194265 0.0457021 0.191867
20130 6 0.19908 0.0416569 0.199124
20133 7 0.202334 0.102366 0.22347
20134 7 0.239144 0.0378453 0.225526
20135 7 0.223266 0.0290259 0.21667
22638 8 0.160397 0.0876812 0.188715
22649 6 0.121403 0.054004 0.212476
22673 2 0.171815 0.0467247 0.237153
22675 3 0.166645 0.0585618 0.225503
22676 4 0.176546 0.0202896 0.236944
22679 3 0.170803 0.113031 0.227589
22688 6 0.17068 0.0883627 0.203424
22965 7 0.172431 0.105062 0.207411
22919 9 0.150013 0.0570232 0.224159
22920 9 0.161739 0.0995531 0.227397
22954 7 0.160925 0.0805295 0.210038
20025 7 0.222247 0.0320165 0.19
20132 7 0.226047 0.0950827 0.217326
20024 7 0.214381 0.012673 0.182858
22678 5 0.191358 0.0563694 0.243961
22677 5 0.14969 0.0519416 0.243692
22648 6 0.124957 0.00891418 0.219322
20131 6 0.247352 0.0945584 0.207754
22674 2 0.172404 0.123488 0.239375
22686 7 0.124617 0.026181 0.219274
19990 1 0.224526 0.0216857 0.245611
20119 1 0.218988 0.0868195 0.246931
20129 5 0.247522 0.0514842 0.241917
20098 7 0.241676 0.105156 0.202274
20365 9 0.25318 0.00315277 0.223207
20378 9 0.270979 0.0150779 0.186159
20099 7 0.257452 0.105186 0.212204
17456 7 0.310795 0.0186078 0.21256
17457 7 0.297445 0.00201667 0.219669
17471 6 0.310162 0.050861 0.203905
17472 7 0.317076 0.0952461 0.1873
17494 7 0.322459 0.0271407 0.192958
17503 6 0.31309 0.00791181 0.21874
17509 7 0.311903 0.0645266 0.199937
17510 7 0.293933 0.0512058 0.203756
17544 6 0.32883 0.0865486 0.221166
17578 6 0.302419 0.114091 0.194301
17582 7 0.345352 0.0884359 0.218884
17583 7 0.322566 0.0767154 0.215449
20050 2 0.268227 0.0611241 0.235575
20056 3 0.266607 0.0586091 0.222459
20121 2 0.268888 0.112939 0.237734
20123 3 0.263127 0.122214 0.225976
20124 4 0.270439 0.0871863 0.237729
20366 9 0.25695 0.0712676 0.219777
17501 5 0.349418 0.0516727 0.241178
20057 5 0.28938 0.0494751 0.240514
17577 5 0.350373 0.122736 0.241005
17497 2 0.373231 0.0456172 0.236449
17500 4 0.37149 0.0187416 0.235013
17827 9 0.379659 0.115543 0.190703
17549 7 0.289451 0.117454 0.18842
17495 1 0.317498 0.0201471 0.240157
20126 5 0.291305 0.121759 0.242021
17438 1 0.323113 0.0841829 0.241821
17498 2 0.376002 0.121262 0.23862
17813 9 0.378164 0.0731848 0.225906
20125 5 0.250464 0.120885 0.24541
15011 7 0.469508 0.2456 0.101759
17814 9 0.396795 0.107051 0.226283
17504 3 0.381182 0.104448 0.22864
15272 9 0.477969 0.0105147 0.188532
17499 3 0.377103 0.0570819 0.225103
12366 6 0.490907 0.0940821 0.204896
14950 5 0.494319 0.114922 0.239969
12407 7 0.485971 0.102292 0.19844
12408 7 0.483813 0.103349 0.210559
14868 8 0.454687 0.019362 0.223249
14869 2 0.472347 0.055199 0.240048
14874 3 0.42409 0.0172657 0.229115
14875 4 0.469871 0.0433462 0.22888
14884 6 0.447921 0.0159659 0.207626
14904 7 0.441491 0.0865888 0.225943
14905 7 0.424525 0.0725575 0.219944
14914 6 0.417078 0.0806064 0.187778
14918 6 0.393607 0.0413554 0.204723
14922 7 0.408954 0.0348375 0.192619
14941 7 0.40253 0.085707 0.189657
14942 7 0.414784 0.0647739 0.188849
14945 2 0.470858 0.106359 0.236219
14947 3 0.464033 0.11095 0.223666
14948 4 0.47284 0.0807546 0.239224
14951 6 0.425761 0.0813895 0.226601
14955 6 0.415882 0.0255354 0.186468
14959 7 0.385435 0.0429052 0.211934
14960 7 0.383156 0.047445 0.199058
15273 9 0.49012 0.0462578 0.191536
15297 7 0.46099 0.0226999 0.202035
15303 9 0.410427 0.0186272 0.223459
15308 7 0.431434 0.0239124 0.20495
15274 9 0.457968 0.125754 0.185997
14949 5 0.453405 0.116753 0.243675
17505 5 0.390432 0.116758 0.2487
17502 5 0.389686 0.0526435 0.245791
14876 5 0.49608 0.0492096 0.244852
14943 1 0.421806 0.0819409 0.24791
15030 7 0.429325 0.201427 0.214134
15246 9 0.414123 0.0047099 0.12438
25299 5 0.071523 0.125026 0.233545
25348 7 0.0225542 0.16573 0.198453
25366 1 0.0217064 0.209539 0.246496
25486 9 0.087408 0.233028 0.196759
25372 5 0.0502707 0.243254 0.248843
25518 7 0.0655773 0.153447 0.203727
25512 9 0.0199927 0.145472 0.221309
25507 7 0.0902718 0.161396 0.208698
25485 9 0.0878108 0.154738 0.187304
25382 7 0.0407986 0.217329 0.225513
25381 7 0.0518122 0.194992 0.229865
25377 6 0.0225769 0.148947 0.197764
25371 4 0.0724942 0.20943 0.243989
25370 3 0.0744561 0.241051 0.231353
25368 2 0.0729104 0.235561 0.243983
25347 7 0.00656017 0.145415 0.200303
25343 6 0.0376046 0.202223 0.226607
25314 6 0.0774168 0.148944 0.210352
25304 4 0.0742653 0.169242 0.235005
25303 3 0.0323574 0.143355 0.227632
25298 2 0.0762722 0.183318 0.245066
25297 8 0.0641991 0.148304 0.225058
25266 3 0.0877171 0.170551 0.188591
22758 7 0.110923 0.169666 0.231435
22796 7 0.122162 0.217612 0.188798
22960 9 0.108545 0.222882 0.232192
22718 6 0.121964 0.1566 0.230712
22830 7 0.0809123 0.221018 0.215582
22791 6 0.0912726 0.21846 0.209563
25378 6 0.0246422 0.198237 0.202124
25345 7 0.0334356 0.194678 0.208628
25242 1 0.025908 0.14846 0.248152
22829 7 0.104978 0.224328 0.212794
22751 3 0.122172 0.21227 0.232969
25336 3 0.0879495 0.243871 0.190653
22753 5 0.197524 0.24016 0.24608
22755 6 0.130814 0.123964 0.21025
22721 7 0.143125 0.124517 0.215242
22720 7 0.131961 0.139272 0.192299
22756 6 0.135006 0.143988 0.184484
20165 6 0.21454 0.201117 0.227086
20166 6 0.1988 0.237867 0.21304
20168 7 0.212872 0.214443 0.19756
20169 7 0.176202 0.157363 0.196536
20170 7 0.16631 0.142979 0.205529
20203 6 0.180322 0.147759 0.202827
20204 6 0.215759 0.217031 0.189879
20206 7 0.1901 0.237683 0.219964
20207 7 0.209719 0.210192 0.220558
20208 7 0.201051 0.194196 0.229801
22744 2 0.173034 0.174759 0.242044
22745 8 0.150056 0.211274 0.224768
22747 5 0.16211 0.188865 0.232944
22748 4 0.176251 0.149715 0.238503
22966 7 0.139336 0.211335 0.203827
22752 4 0.16705 0.231745 0.232177
22757 7 0.136644 0.165557 0.2297
22762 6 0.15363 0.21271 0.209249
22955 7 0.165896 0.223778 0.205639
20167 7 0.223876 0.231037 0.190926
20413 7 0.227581 0.138467 0.205393
20136 6 0.244074 0.143549 0.202399
20368 9 0.249383 0.183289 0.223164
22746 2 0.174215 0.247315 0.241638
20197 5 0.255766 0.247125 0.245721
20198 5 0.297235 0.240404 0.243442
20202 5 0.25221 0.178246 0.245846
17567 1 0.320104 0.147613 0.241434
17650 5 0.3573 0.242439 0.239808
17515 1 0.327403 0.211738 0.242251
20196 4 0.26887 0.212247 0.237698
17548 7 0.312225 0.127144 0.193458
20367 9 0.266624 0.13767 0.224586
17573 5 0.351496 0.176847 0.23788
17534 8 0.356434 0.206283 0.189307
17545 6 0.313268 0.209827 0.222133
17546 7 0.336087 0.160984 0.199007
17547 7 0.351129 0.157702 0.189044
17579 6 0.339395 0.149326 0.193495
17580 7 0.305295 0.218039 0.215341
17581 7 0.300166 0.202754 0.225926
17584 6 0.353636 0.203462 0.205177
17854 9 0.312539 0.211664 0.184864
17861 7 0.340562 0.210079 0.20973
20086 8 0.249849 0.145753 0.186816
20122 2 0.269863 0.186202 0.237053
20127 3 0.264195 0.17601 0.22499
20158 3 0.27465 0.241632 0.186303
20192 2 0.273736 0.238356 0.238182
20402 7 0.24589 0.1592 0.207399
17618 7 0.293733 0.232006 0.196552
17651 6 0.304823 0.228958 0.202528
17850 7 0.368335 0.203673 0.209957
20128 5 0.294678 0.179457 0.239501
17617 7 0.307855 0.244681 0.204929
15263 9 0.485427 0.224949 0.216792
15019 3 0.484768 0.238311 0.22088
15261 9 0.453323 0.123997 0.223566
15031 7 0.412323 0.218147 0.220017
14958 7 0.411809 0.152406 0.225281
14953 5 0.492825 0.171345 0.242199
15015 1 0.423041 0.211781 0.243002
17572 4 0.381538 0.146086 0.234397
14886 1 0.428504 0.147431 0.24555
17575 3 0.382274 0.233662 0.222694
17576 5 0.400242 0.238758 0.24163
17574 5 0.393473 0.18199 0.243185
17569 2 0.376861 0.1724 0.235183
15021 5 0.457184 0.241458 0.238479
17570 2 0.380432 0.246469 0.234258
17571 3 0.385789 0.182132 0.223902
14956 6 0.428037 0.147234 0.18439
15025 5 0.453073 0.181013 0.239813
15017 2 0.480674 0.234849 0.23354
14946 2 0.476957 0.183463 0.234501
15020 4 0.482222 0.209328 0.235668
14920 7 0.431441 0.155901 0.191456
14997 7 0.426424 0.182295 0.198161
14996 7 0.450819 0.179036 0.200818
14957 7 0.430981 0.15345 0.21666
14992 6 0.428181 0.211725 0.220898
17815 9 0.382215 0.197694 0.222833
15026 6 0.436432 0.176956 0.204035
14952 3 0.480687 0.174281 0.222148
20190 1 0.221498 0.215156 0.247384
20205 7 0.212296 0.247609 0.214471
17816 9 0.378746 0.244485 0.21649
25346 7 0.0116067 0.20742 0.205275
14984 5 0.472027 0.248518 0.182497
14815 1 0.424252 0.0188737 0.249624
22824 5 0.155142 0.241756 0.249793
25178 3 0.0329637 0.0179602 0.291606
25184 7 0.0880512 0.00450982 0.298566
25218 6 0.0811951 0.00160996 0.291405
25245 3 0.0389754 0.0960121 0.290718
25256 7 0.0825863 0.0782288 0.29752
25257 7 0.0624373 0.0634141 0.292436
25288 6 0.0796182 0.0629663 0.294743
25497 9 0.0268901 0.0905884 0.295314
25302 5 0.0942037 0.114768 0.252025
22624 5 0.119211 0.0261453 0.274299
25251 5 0.0191108 0.0219847 0.271392
25248 5 0.0617007 0.0825757 0.27476
25247 5 0.0185587 0.0872632 0.271069
25246 4 0.0337029 0.0560116 0.282417
25243 2 0.0377401 0.082002 0.27933
25241 1 0.0881702 0.116055 0.274734
22031 7 0.207701 -0.000783899 0.324325
25224 1 0.0932575 0.0535198 0.274354
22699 5 0.119489 0.0801865 0.272901
25179 5 0.0615481 0.0237257 0.277538
25173 2 0.036522 0.0300411 0.280094
25255 7 0.0953861 0.11776 0.302859
25289 6 0.0991638 0.113155 0.295518
25254 7 0.112762 0.103163 0.296972
22671 1 0.12031 0.0226618 0.251331
25183 7 0.0693654 0.0145351 0.290905
25496 9 0.0184832 0.00902418 0.292193
24654 7 0.0776211 0.051872 0.312901
24653 7 0.0630939 0.122261 0.31625
1928 7 -0.00146913 0.0574162 0.292867
22280 9 0.170777 -0.000129131 0.418666
25504 7 0.00494372 0.124492 0.303325
25313 6 0.00152838 0.10826 0.307811
22943 9 0.145566 0.0315596 0.29823
19999 4 0.230083 0.0136573 0.283885
20070 3 0.241567 0.0943873 0.287446
20391 9 0.227535 0.0965052 0.291519
22622 3 0.137412 0.0371141 0.291821
22626 3 0.1475 0.0851123 0.289332
22632 7 0.208705 0.0716932 0.300229
22666 6 0.208331 0.0645707 0.307719
22944 9 0.139642 0.0710115 0.292039
19993 2 0.233942 0.0289457 0.273927
20068 2 0.23805 0.0807793 0.276445
20071 4 0.236386 0.0546262 0.277904
20072 5 0.216614 0.0887503 0.269811
20076 5 0.212863 0.0304805 0.266583
22618 1 0.183763 0.0525906 0.266969
22619 1 0.129631 0.0864589 0.250798
22620 2 0.139134 0.0190448 0.282047
22621 2 0.141856 0.0899891 0.276694
22625 5 0.160656 0.0216754 0.275072
22627 5 0.160671 0.0797911 0.269062
22672 1 0.192951 0.117363 0.27082
22694 4 0.140168 0.116295 0.275341
14315 5 0.48522 0.175783 0.443203
22736 6 0.196024 0.101088 0.291653
22705 7 0.181515 0.0938432 0.293701
22704 7 0.195275 0.115692 0.295334
22633 7 0.193376 0.0365654 0.309272
22665 6 0.185301 0.0224668 0.308581
20416 7 0.250008 0.00695008 0.309353
20000 5 0.254556 0.0227444 0.266366
17440 8 0.314097 0.0544436 0.287797
17442 5 0.324738 0.0324397 0.278725
17446 3 0.284973 0.0476289 0.282138
17447 4 0.325884 0.077024 0.280187
17453 7 0.33819 0.0943124 0.295195
17488 6 0.346828 0.098999 0.301604
17857 9 0.269016 0.051587 0.284946
20005 7 0.288852 0.0144407 0.284234
20082 7 0.273578 0.105358 0.289428
20113 6 0.283371 0.117411 0.287133
17439 2 0.333762 0.0180724 0.269237
17441 2 0.334744 0.0924779 0.27092
17444 5 0.318808 0.0224686 0.259512
17445 5 0.359294 0.0260423 0.267816
17448 5 0.36034 0.0869109 0.270794
17519 4 0.333365 0.118033 0.273308
17524 5 0.320155 0.088377 0.261094
20048 1 0.287832 0.0538917 0.262799
20066 1 0.283059 0.116755 0.265738
20073 5 0.257651 0.0863668 0.268828
17452 7 0.359914 0.106568 0.298683
17513 6 0.314359 0.0533467 0.303867
17863 7 0.321908 0.0675012 0.308113
17864 7 0.298575 0.0498502 0.307952
14822 3 0.436987 0.0155142 0.290042
14827 7 0.493715 0.0564732 0.295119
14828 7 0.476782 0.0367231 0.29108
14860 6 0.490476 0.0465002 0.288359
14888 8 0.419698 0.120079 0.292746
14890 5 0.426418 0.0965149 0.284553
14894 3 0.388594 0.12237 0.288754
14902 7 0.461841 0.0676493 0.307902
14903 7 0.445802 0.0635375 0.298489
14935 6 0.446209 0.0617394 0.30639
17454 7 0.423714 0.0235338 0.30322
16873 7 0.308025 0.00510395 0.403488
14817 2 0.436495 0.0290727 0.278913
14823 5 0.454878 0.0183023 0.270866
14866 1 0.487953 0.0515997 0.266927
14885 1 0.481788 0.115311 0.263429
14887 2 0.436221 0.0801765 0.276098
14891 4 0.438773 0.0553982 0.280548
14892 5 0.421795 0.0811963 0.265391
14893 5 0.459288 0.0888364 0.272237
14897 5 0.414439 0.0235438 0.272789
24582 7 0.0933089 0.00802842 0.316815
17437 1 0.382663 0.0554979 0.26744
17496 1 0.393612 0.11993 0.26844
14961 6 0.429855 0.11712 0.307619
17487 6 0.413788 0.0293828 0.308887
14936 6 0.496083 0.081224 0.304293
25498 9 0.0333956 0.127694 0.292325
25249 3 0.0303263 0.143739 0.291434
25319 3 0.0224944 0.212062 0.289827
25330 7 0.0764354 0.200007 0.294836
25331 7 0.0556337 0.182308 0.29262
25360 6 0.0715511 0.183061 0.294625
25499 9 0.0247952 0.22837 0.289759
25373 5 0.0928303 0.244268 0.250298
25325 5 0.0193954 0.142019 0.270542
25322 5 0.0578797 0.210217 0.27732
25321 5 0.0187108 0.209844 0.268139
25320 4 0.0348025 0.177501 0.279752
25317 2 0.0323779 0.202859 0.2783
25315 1 0.0820814 0.241888 0.274043
25305 5 0.0947732 0.176389 0.252955
25295 1 0.0905882 0.178013 0.27722
25250 5 0.0604001 0.143656 0.276093
25244 2 0.0364897 0.150925 0.278731
22695 5 0.11877 0.152602 0.275243
22773 5 0.114281 0.211632 0.277729
22742 1 0.117773 0.148376 0.251723
1998 7 0.00174579 0.161644 0.286948
22761 6 0.115524 0.17845 0.299869
24688 6 0.0736544 0.224638 0.302397
24726 7 0.0855118 0.235401 0.304402
22963 7 0.125513 0.190899 0.295761
22690 1 0.127955 0.212232 0.253335
24727 7 0.0603914 0.229385 0.305836
22952 7 0.12209 0.162176 0.295818
20392 9 0.227618 0.150939 0.292715
20074 3 0.241336 0.154668 0.288644
20141 3 0.244656 0.202052 0.287773
20209 6 0.223015 0.236299 0.302935
20393 9 0.243117 0.186163 0.289637
22693 3 0.144097 0.139718 0.291921
22697 3 0.145255 0.214635 0.293035
22702 7 0.202524 0.199342 0.293477
22703 7 0.180976 0.186954 0.298211
22737 6 0.192818 0.185703 0.292349
22945 9 0.141952 0.125455 0.295004
22946 9 0.156678 0.225427 0.295
20067 1 0.225564 0.150647 0.25007
20069 2 0.237735 0.154114 0.27551
20139 2 0.2365 0.205481 0.275443
20142 4 0.235796 0.179105 0.271497
20143 5 0.212224 0.214879 0.272771
20147 5 0.213581 0.144831 0.27266
24599 7 0.0491368 0.0284699 0.410097
22689 1 0.182846 0.180627 0.271668
22691 2 0.140614 0.141784 0.279342
22692 2 0.139321 0.219072 0.280094
22696 5 0.160697 0.152765 0.273361
22698 5 0.156301 0.206734 0.272934
22743 1 0.187063 0.245996 0.268575
22749 5 0.152184 0.174747 0.250043
17562 6 0.381106 0.243763 0.285258
22768 4 0.137465 0.244832 0.278548
20400 7 0.232573 0.222548 0.29979
22062 6 0.204255 0.144091 0.305335
22102 7 0.199611 0.157193 0.301216
20409 9 0.181434 -0.00148783 0.293441
22808 6 0.182215 0.248094 0.289629
22778 7 0.197672 0.24169 0.290415
20081 7 0.275867 0.130726 0.290988
17518 3 0.334448 0.155822 0.283561
17522 3 0.333293 0.207924 0.283327
17839 9 0.31832 0.161139 0.284362
17840 9 0.342788 0.194345 0.283581
20079 7 0.305052 0.19347 0.286785
20080 7 0.27967 0.191048 0.288084
20114 6 0.29207 0.182311 0.285306
20152 7 0.311112 0.207429 0.299705
20153 7 0.298517 0.228184 0.298821
20184 6 0.300019 0.215797 0.303928
17516 2 0.335938 0.144351 0.271755
17517 2 0.333104 0.217708 0.271098
17520 5 0.316843 0.151836 0.264289
17521 5 0.358922 0.152648 0.267416
17523 5 0.353409 0.209253 0.26465
17590 4 0.334477 0.243472 0.270073
17595 5 0.311657 0.210387 0.264757
20075 5 0.25612 0.143225 0.268165
20120 1 0.285988 0.179921 0.264268
20137 1 0.278695 0.245594 0.267312
20144 5 0.255794 0.216736 0.268882
17530 7 0.362686 0.170257 0.287677
11728 6 0.499322 0.105846 0.403531
17561 6 0.376991 0.178424 0.286925
17527 7 0.380852 0.233695 0.291843
15305 9 0.379505 0.137493 0.29054
14331 5 0.4554 0.210332 0.464485
12342 3 0.484807 0.174701 0.284573
12753 9 0.470211 0.184704 0.285859
14895 4 0.431824 0.14158 0.284013
14966 3 0.438752 0.217779 0.286127
14977 7 0.466948 0.227488 0.30903
14978 7 0.455825 0.213025 0.299717
15009 6 0.458162 0.214006 0.307728
15287 9 0.439653 0.233882 0.285365
17529 7 0.381673 0.1791 0.294568
14889 2 0.436506 0.154825 0.273573
14896 5 0.456087 0.146326 0.266601
14944 1 0.489302 0.17574 0.264381
14962 1 0.483983 0.238495 0.262562
14964 2 0.437052 0.206696 0.274146
14967 4 0.434901 0.180902 0.274138
14968 5 0.418233 0.214818 0.266152
14969 5 0.45878 0.211702 0.267839
14972 5 0.416993 0.148862 0.265853
17514 1 0.384381 0.180938 0.265792
17568 1 0.385891 0.240423 0.263565
12760 7 0.499967 0.176506 0.311914
22022 5 0.116092 0.0264025 0.338991
22097 5 0.112373 0.0823765 0.338199
24550 1 0.0844622 0.0539284 0.339285
24553 2 0.0771339 0.0574315 0.369845
24560 5 0.0975337 0.0497534 0.361904
24569 1 0.0288928 0.0197884 0.365867
24571 2 0.033799 0.0222541 0.335644
24576 3 0.0301724 0.0228572 0.322664
24577 5 0.0573351 0.0149045 0.340132
24614 6 0.0691847 0.050244 0.319852
24620 1 0.0173584 0.0801358 0.369182
24626 5 0.0498053 0.110673 0.370564
24627 5 0.0900042 0.118571 0.362547
24630 5 0.0547969 0.0499559 0.364358
24637 1 0.078454 0.114054 0.340364
24639 2 0.0294709 0.0731985 0.341221
24640 8 0.00764573 0.108652 0.323388
24642 5 0.0215842 0.0867503 0.330965
24643 4 0.0302407 0.0472593 0.339522
24644 5 0.0132235 0.080348 0.35061
24645 5 0.052555 0.083912 0.342117
24649 5 0.0142281 0.0129199 0.342947
24655 7 0.0544364 0.0425252 0.317501
24820 9 0.014436 0.022697 0.32122
24625 4 0.0786391 0.0835674 0.371192
24615 6 0.0725984 0.109005 0.31785