ITEM: TIMESTEP
182000
ITEM: NUMBER OF ATOMS
25520
ITEM: BOX BOUNDS pp pp pp
-3.8009914113056792e-01 6.0078642731129506e+01
-1.9356544882626436e+00 5.9105939762264384e+01
-1.2626175227810085e+01 1.1190190763381499e+02
ITEM: ATOMS id type xs ys zs
25182 6 0.102372 0.033473 0.152153
25292 7 0.114621 0.102507 0.150511
25252 6 0.109009 0.0882386 0.152381
25214 3 0.0394753 0.0467233 0.159514
25287 5 0.0336149 0.0558475 0.178724
25283 5 0.0727994 0.116077 0.172366
25282 5 0.0315858 0.117784 0.178366
25281 4 0.0456387 0.0870844 0.166469
25277 2 0.047627 0.112227 0.169371
25215 5 0.0737766 0.0554932 0.171896
25209 2 0.0489201 0.061014 0.169217
25188 1 0.104757 0.0870828 0.17279
25458 9 0.0427941 0.0312658 0.159834
25206 1 0.100866 0.0276268 0.172658
25220 7 0.0915645 0.0304045 0.146577
25219 7 0.10249 0.049894 0.151589
2433 1 0.00701666 0.0247453 0.177379
25293 7 0.120853 0.0781712 0.149923
14909 2 0.479105 0.218869 0.198113
22735 5 0.133636 0.118832 0.175278
22660 5 0.137933 0.05976 0.172771
22905 9 0.145022 0.048797 0.148159
22662 3 0.145024 0.114628 0.154859
22658 3 0.146088 0.0614193 0.153497
22656 2 0.153113 0.0509206 0.16433
20108 5 0.232717 0.118044 0.17067
20112 5 0.232038 0.0566892 0.170517
22663 5 0.174233 0.117949 0.169501
22654 1 0.199246 0.0877879 0.169728
22661 5 0.175618 0.0596535 0.167499
22669 7 0.221875 0.036136 0.148969
22659 4 0.153231 0.0253478 0.164213
22563 1 0.205531 0.025565 0.17055
22629 6 0.20803 0.0285776 0.150205
22670 7 0.205994 0.0221864 0.143339
20036 3 0.251036 0.0522415 0.152412
22906 9 0.149927 0.0993652 0.155338
22583 2 0.152748 0.000553688 0.167393
20106 3 0.248638 0.122504 0.150478
20107 4 0.252612 0.0877283 0.162335
20031 2 0.252127 0.0633628 0.163902
20104 2 0.252505 0.113805 0.162466
20352 9 0.264143 0.044215 0.150754
20118 7 0.318585 0.0941582 0.148594
20117 7 0.292484 0.0916421 0.14807
20077 6 0.306174 0.084151 0.149763
17480 3 0.348398 0.0537447 0.152617
17799 9 0.341602 0.0677297 0.15234
17484 3 0.346687 0.111984 0.151578
17478 2 0.353453 0.0484886 0.164656
20109 5 0.275049 0.122851 0.166199
17482 5 0.335787 0.0584996 0.171576
20037 5 0.27581 0.0557484 0.167866
20011 1 0.30418 0.0882597 0.169959
20028 1 0.300775 0.0244065 0.169918
17481 4 0.351073 0.0227254 0.166274
20003 6 0.308788 0.0269884 0.149845
17413 7 0.366198 0.0330323 0.141402
17414 7 0.363694 0.00942413 0.139461
20041 7 0.304979 0.0374159 0.144593
20042 7 0.324362 0.0327054 0.15179
17485 5 0.37387 0.119291 0.165337
17560 5 0.333347 0.118547 0.171076
17483 5 0.376508 0.0562151 0.16669
17378 6 0.374749 0.0199946 0.138817
17479 2 0.349969 0.125495 0.162049
17800 9 0.356399 0.117404 0.14611
17490 7 0.426423 0.100376 0.151696
17489 7 0.41323 0.0947681 0.14204
17451 6 0.412796 0.0944063 0.149616
14856 3 0.448378 0.0478851 0.15557
15246 9 0.456243 0.0526758 0.149508
14929 4 0.450231 0.0881182 0.162436
14926 2 0.453212 0.113192 0.163423
14851 2 0.45218 0.0635017 0.165317
14931 5 0.476242 0.118278 0.16835
14857 5 0.475184 0.0587408 0.169622
17476 1 0.398865 0.090731 0.169219
14934 5 0.433422 0.0591929 0.173677
14930 5 0.434379 0.122299 0.170464
17384 1 0.403971 0.0251316 0.172191
17450 6 0.410026 0.0226665 0.15271
17491 7 0.422818 0.0308291 0.150916
17492 7 0.40168 0.0231985 0.146031
14928 3 0.450803 0.125182 0.152281
15245 9 0.442601 0.005978 0.152329
25284 3 0.00242216 0.152015 0.156072
25280 5 0.0402753 0.129114 0.161064
25291 7 0.106286 0.152603 0.148925
25290 7 0.0828375 0.14722 0.147016
2033 7 0.0508852 0.175375 0.138082
1995 6 0.0495375 0.158128 0.140283
25253 6 0.0936564 0.146358 0.152445
2032 7 0.043746 0.149317 0.133547
25275 1 0.0984053 0.149043 0.173589
25278 8 0.0330271 0.152913 0.15333
22957 9 0.0900453 0.214799 0.149664
22732 3 0.1027 0.214692 0.154231
25285 4 0.040842 0.17362 0.162672
25359 5 0.0335085 0.185533 0.180326
25356 5 0.0733311 0.245491 0.170805
25354 4 0.0471662 0.213614 0.166857
25351 2 0.048519 0.239098 0.169266
25286 5 0.0740929 0.178649 0.173563
25279 2 0.050293 0.189145 0.170995
25259 1 0.103432 0.214895 0.172929
25355 5 0.0317509 0.246077 0.177608
25433 7 0.0476121 0.203036 0.150762
25394 6 0.0530196 0.212405 0.144864
25432 7 0.0489469 0.225181 0.148773
2104 7 0.00491785 0.229587 0.152758
1933 1 0.00251799 0.15267 0.175889
12399 6 0.495874 0.185107 0.242938
22657 2 0.150043 0.126149 0.166184
1962 7 0.153331 0.199921 0.133615
20353 9 0.243084 0.13705 0.150791
1927 6 0.144834 0.216102 0.135544
22668 7 0.143921 0.138865 0.143165
22630 6 0.138241 0.152676 0.141402
1963 7 0.157121 0.226947 0.13366
22726 8 0.132664 0.213745 0.15022
22730 5 0.130371 0.181249 0.174766
22740 7 0.214997 0.134659 0.146915
22667 7 0.142161 0.16049 0.147843
22700 6 0.211324 0.147972 0.150439
22636 1 0.203693 0.151425 0.169503
22729 4 0.149735 0.151585 0.163235
22733 4 0.139765 0.236516 0.158446
20188 7 0.181288 0.197493 0.155007
20189 7 0.196791 0.186514 0.147189
22741 7 0.224115 0.158078 0.148234
20148 6 0.194769 0.200361 0.150699
22728 5 0.140984 0.189528 0.156642
20110 3 0.246859 0.173226 0.153656
22725 2 0.148428 0.176267 0.166265
20178 5 0.231405 0.24568 0.170785
20183 5 0.234852 0.183505 0.172942
22723 1 0.198941 0.215249 0.16965
22731 5 0.172329 0.182857 0.168415
22734 5 0.173278 0.245467 0.168494
20173 2 0.249912 0.238716 0.162725
22807 5 0.131978 0.243909 0.176269
20177 4 0.247671 0.213872 0.15981
20105 2 0.251668 0.188945 0.163474
20354 9 0.250742 0.181733 0.147348
17555 4 0.346356 0.150359 0.160451
20102 1 0.299532 0.150515 0.168588
17554 3 0.349716 0.185832 0.149906
17801 9 0.343335 0.199732 0.150481
17558 3 0.337408 0.234962 0.152965
17552 2 0.350807 0.175322 0.161974
17556 5 0.332931 0.182506 0.169796
20111 5 0.276462 0.182688 0.166317
20084 1 0.303537 0.214838 0.170324
17631 5 0.330512 0.246786 0.171562
17802 9 0.331937 0.244816 0.147511
20179 5 0.274365 0.243091 0.165671
17559 5 0.371694 0.241772 0.165108
17557 5 0.373591 0.18045 0.166699
17553 2 0.347305 0.249105 0.162338
20091 5 0.298763 0.152382 0.189462
17564 7 0.405628 0.178087 0.147218
15247 9 0.451446 0.140739 0.153454
17563 7 0.386733 0.192507 0.14951
14940 7 0.481618 0.134703 0.152442
17566 7 0.412655 0.132858 0.146076
17565 7 0.425511 0.153248 0.147978
17525 6 0.410779 0.148208 0.148699
14939 7 0.491906 0.146406 0.142638
17459 1 0.403618 0.151149 0.169976
17526 6 0.40229 0.194149 0.147842
14899 6 0.441369 0.191897 0.134666
14938 7 0.42598 0.194683 0.136203
14937 7 0.44741 0.206563 0.13363
15248 9 0.449605 0.182516 0.14803
15002 3 0.451451 0.24436 0.149711
14932 3 0.447988 0.172375 0.154601
15000 2 0.451758 0.235905 0.16225
15003 4 0.453776 0.21118 0.161189
14927 2 0.452487 0.186822 0.164982
15005 5 0.473042 0.245564 0.166965
14933 5 0.474514 0.179632 0.16917
15004 5 0.432316 0.244061 0.169476
17550 1 0.39822 0.212867 0.166632
15008 5 0.433647 0.185112 0.172608
14898 6 0.495399 0.141827 0.150288
25227 3 0.0677774 0.0224722 0.24769
25269 6 0.00469729 0.120881 0.244379
25195 5 0.0977148 0.0302077 0.192735
25198 5 0.0974338 0.0890861 0.19286
25311 7 0.0072574 0.121828 0.236639
25471 9 0.065443 0.00779077 0.244116
25268 5 0.0558264 0.0829922 0.198318
25258 1 0.027224 0.118607 0.196187
25207 1 0.0324249 0.0567336 0.200392
25191 2 0.0790665 0.0920087 0.201157
25263 4 0.0758668 0.116854 0.202056
25197 4 0.0847242 0.0807074 0.211571
25192 5 0.0789434 0.0365493 0.211029
25196 3 0.0416533 0.0578407 0.218404
25190 8 0.0732744 0.0582242 0.219758
25510 9 0.0316742 0.0584338 0.225685
22684 7 0.105297 0.0957106 0.229672
25517 7 0.0832947 0.0402389 0.237631
25240 6 0.0894694 0.0544742 0.233462
22685 7 0.0884349 0.104011 0.220307
25506 7 0.0876815 0.0673965 0.239023
22649 6 0.0976223 0.108839 0.226683
25194 5 0.0584249 0.021981 0.197499
25189 2 0.0828146 0.0208394 0.201727
25201 6 0.0217627 0.0460782 0.243058
25472 9 0.0645328 0.0968263 0.244169
22650 7 0.114759 0.0730199 0.213549
25237 7 0.0345829 0.0391912 0.246105
25204 7 0.0493953 0.0193896 0.216188
25234 6 0.0388604 0.00771131 0.219236
25236 7 0.0166936 0.0345229 0.239118
25310 7 0.0719045 0.117428 0.232357
17468 5 0.394079 0.150597 0.188962
22717 6 0.118914 0.127397 0.246818
25231 3 0.0665045 0.085025 0.249553
22687 7 0.117518 0.0384065 0.232989
20062 7 0.124121 0.0679544 0.238558
25270 6 0.0563502 0.1215 0.23449
22686 7 0.126977 0.0196156 0.239468
22635 1 0.128177 0.0584938 0.192553
22653 7 0.127751 0.0140714 0.219903
22683 6 0.127298 0.0616423 0.212549
22648 6 0.132256 0.0324234 0.235269
20009 7 0.197817 0.00868516 0.243064
20135 7 0.200685 0.0627298 0.239117
22572 5 0.200785 0.0297162 0.188744
22643 5 0.202899 0.0882938 0.191387
22651 7 0.132018 0.0586509 0.219965
22931 9 0.184672 0.019266 0.214496
20083 1 0.226865 0.118373 0.19006
22655 1 0.132844 0.118764 0.194007
20029 1 0.234509 0.0575942 0.191389
22642 5 0.160098 0.0830249 0.193174
20063 7 0.194696 0.0770953 0.219353
22637 2 0.18314 0.0816041 0.198299
22641 4 0.185388 0.056473 0.202146
22565 2 0.184808 0.0317708 0.198299
22640 5 0.179961 0.0968666 0.207977
20024 7 0.24283 0.0587188 0.217507
20060 6 0.236958 0.066937 0.211833
20023 6 0.128155 0.0810666 0.235676
20061 7 0.138768 0.0872926 0.240757
20022 6 0.199843 0.0703909 0.226085
20064 7 0.215403 0.0673314 0.224896
22647 5 0.160927 0.025208 0.195461
20134 7 0.190973 0.048353 0.248518
20096 6 0.205101 0.0563253 0.246541
20133 7 0.218821 0.125857 0.242258
22571 3 0.193706 0.0146207 0.207501
22965 7 0.179465 0.113203 0.236593
22612 6 0.183197 0.0223318 0.227334
17509 7 0.237072 0.0265323 0.21981
22577 7 0.19039 0.0369721 0.228416
20097 6 0.212863 0.119866 0.249315
22576 7 0.168384 0.0245568 0.230659
22638 8 0.17033 0.119723 0.215336
22644 3 0.139785 0.118235 0.212405
22682 6 0.132468 0.0018441 0.215255
20025 7 0.247649 0.0773781 0.208702
20130 6 0.252902 0.124939 0.233232
22760 7 0.118571 0.120329 0.23931
22688 6 0.180306 0.122289 0.230024
22918 9 0.154801 0.0351428 0.244231
15011 7 0.500674 0.214441 0.145022
14878 6 0.441866 0.000718863 0.235744
25200 6 0.0115551 -0.000214744 0.245646
17512 7 0.268273 0.00372742 0.230543
17427 4 0.357404 0.0169318 0.248134
17471 6 0.247032 0.0346883 0.224804
17510 7 0.24298 0.0311697 0.23222
20051 3 0.260717 0.0315407 0.247411
20366 9 0.260676 0.102832 0.242876
20016 5 0.258076 0.0266161 0.194564
20017 5 0.297555 0.0229345 0.189816
17475 7 0.313946 0.0056384 0.217515
20020 5 0.29939 0.0850122 0.191022
17477 1 0.331704 0.120754 0.192261
17458 1 0.326561 0.0564248 0.19107
20095 5 0.259052 0.0860662 0.194398
17464 5 0.353463 0.0909608 0.193124
20013 2 0.281057 0.0940291 0.198372
20379 9 0.290698 0.0727298 0.211167
20089 4 0.283012 0.119479 0.198892
20019 3 0.282617 0.0865898 0.210241
20378 9 0.267469 0.0312011 0.212745
17466 6 0.320976 0.0521232 0.211117
17493 7 0.307988 0.046031 0.214584
17494 7 0.330186 0.0605583 0.215708
17473 7 0.33504 0.108822 0.216807
14960 7 0.356902 0.0841252 0.218377
17548 7 0.287805 0.11644 0.217437
14918 6 0.343678 0.0870177 0.222798
14959 7 0.348295 0.0910186 0.229847
17469 5 0.357848 0.0222889 0.194647
17456 7 0.288772 0.0532089 0.23948
17457 7 0.290659 0.0743678 0.246335
20014 3 0.282748 0.0292424 0.209204
20012 2 0.280237 0.0182626 0.198041
17503 6 0.299284 0.0627231 0.242887
17499 3 0.36052 0.0946651 0.243233
17582 7 0.330845 0.113734 0.239835
17860 7 0.37332 0.011703 0.226136
17508 6 0.330157 0.122053 0.211503
20101 7 0.266742 0.122267 0.229484
20365 9 0.263383 0.047229 0.247723
17472 7 0.315945 0.129241 0.214871
20056 3 0.264372 0.0908912 0.247924
17463 4 0.378292 0.0571878 0.196214
17813 9 0.375154 0.101818 0.242762
14870 5 0.457962 0.0342133 0.249109
14840 5 0.497788 0.0876477 0.192255
17460 2 0.37604 0.0829102 0.196714
17462 3 0.380645 0.0910568 0.208232
17386 2 0.379247 0.0326976 0.198138
17825 9 0.399936 0.019852 0.210736
17465 5 0.394836 0.0898633 0.188947
17391 3 0.387027 0.0291776 0.210072
14906 1 0.425851 0.117351 0.190993
14838 5 0.495997 0.0294249 0.193984
17392 5 0.396582 0.0248193 0.190591
17826 9 0.396388 0.0879541 0.210324
14849 1 0.43011 0.0581237 0.193152
14917 5 0.456451 0.0899946 0.195997
14837 5 0.455493 0.0290038 0.197333
14911 4 0.480396 0.121793 0.201498
14834 2 0.479855 0.0960957 0.199401
14839 3 0.484313 0.0901257 0.211766
14955 6 0.421146 0.0595867 0.21309
15273 9 0.486663 0.104183 0.215506
14922 7 0.428575 0.0605353 0.220404
14923 7 0.407252 0.0512413 0.214273
15308 7 0.463604 0.072988 0.221944
14884 6 0.45721 0.0579767 0.226079
15297 7 0.46384 0.0447859 0.221731
15303 9 0.409625 0.0584755 0.23705
14868 8 0.451067 0.0576882 0.240971
14835 3 0.484746 0.0282134 0.212888
14874 3 0.420249 0.0593709 0.243446
14833 2 0.478532 0.0216276 0.201363
15272 9 0.485899 0.016644 0.218243
14847 7 0.447481 0.00901865 0.242063
12328 7 0.439837 0.108809 0.2344
14951 6 0.402477 0.123654 0.244257
14942 7 0.430636 0.112449 0.216341
14875 4 0.462856 0.0794502 0.24773
12366 6 0.4859 0.124853 0.22443
14914 6 0.420868 0.115738 0.209969
12291 6 0.433753 0.121309 0.230246
14904 7 0.411272 0.12552 0.237431
14924 1 0.49804 0.151498 0.169818
14952 3 0.467389 0.220342 0.247232
22958 9 0.129352 0.115767 0.219016
25272 7 0.0428393 0.128015 0.222539
14848 1 0.499699 0.0264014 0.17244
25343 6 0.0047063 0.244241 0.242545
25345 7 0.00692337 0.244396 0.217959
25308 6 0.0320158 0.132288 0.216721
25267 5 0.0963082 0.211698 0.193399
25309 7 0.0588253 0.135228 0.237661
25265 5 0.0963812 0.14776 0.193434
25271 7 0.0390357 0.140815 0.211187
25348 7 0.0106375 0.197683 0.218303
25484 9 0.087788 0.136009 0.217489
25347 7 0.0315529 0.190738 0.225083
25512 9 0.0146038 0.184154 0.237229
22791 6 0.0735769 0.245277 0.227207
25303 3 0.0245664 0.182525 0.244331
25260 2 0.0789258 0.142423 0.201603
25264 5 0.0560497 0.150711 0.198706
25332 1 0.0263589 0.244711 0.196796
25276 1 0.0312348 0.18349 0.197268
25342 5 0.056893 0.21327 0.20053
25337 4 0.082899 0.244221 0.202741
25261 2 0.080368 0.219114 0.202326
25266 3 0.0848836 0.20975 0.213908
25262 3 0.0874344 0.149545 0.213043
25485 9 0.0798617 0.221339 0.219184
22720 7 0.106745 0.171661 0.217616
25377 6 0.0261621 0.191869 0.217349
25507 7 0.0674226 0.193521 0.223113
25518 7 0.0791999 0.169174 0.225534
25314 6 0.0673598 0.180076 0.228735
25297 8 0.0559166 0.180628 0.243047
22757 7 0.100199 0.202734 0.244747
22718 6 0.107501 0.188457 0.246214
25378 6 0.0224327 0.247552 0.218667
22830 7 0.0586527 0.244412 0.224229
22825 6 0.125382 0.24238 0.215267
22758 7 0.11945 0.187927 0.240518
22751 3 0.12235 0.247498 0.243769
20131 6 0.229365 0.124308 0.210248
20099 7 0.235746 0.122548 0.217584
22756 6 0.120293 0.178161 0.214707
22759 7 0.134665 0.129835 0.247077
20098 7 0.231909 0.140691 0.210326
22954 7 0.176917 0.139187 0.233316
22706 1 0.126255 0.181751 0.194716
22719 7 0.128899 0.180992 0.22119
22646 5 0.196559 0.151128 0.188444
22713 5 0.197663 0.214026 0.191371
20103 1 0.230876 0.180062 0.191709
20154 1 0.226716 0.24326 0.191205
22716 5 0.155616 0.155326 0.192949
22724 1 0.131181 0.243421 0.195074
22722 7 0.15351 0.198233 0.240513
22645 4 0.178719 0.142189 0.206952
22712 5 0.156411 0.213099 0.197307
22639 2 0.179408 0.157405 0.196616
22708 2 0.180992 0.207058 0.199919
22711 4 0.182005 0.181737 0.199635
22710 3 0.185533 0.212873 0.211684
22932 9 0.185123 0.198233 0.216074
20167 7 0.215565 0.226184 0.211859
20204 6 0.226132 0.238725 0.211419
20092 3 0.235236 0.175921 0.210487
22721 7 0.154589 0.173586 0.240267
20406 9 0.223201 0.174803 0.216443
22966 7 0.170741 0.230169 0.223672
22745 8 0.152893 0.244361 0.242062
20166 6 0.182747 0.176554 0.222254
20206 7 0.169517 0.178509 0.22589
22755 6 0.148984 0.185646 0.23581
20205 7 0.180929 0.166445 0.215822
22762 6 0.165992 0.243938 0.228061
22920 9 0.182464 0.138135 0.249539
17536 5 0.373059 0.224716 0.204663
17583 7 0.310934 0.125254 0.23567
17544 6 0.320512 0.12642 0.241687
17578 6 0.292896 0.129829 0.221256
20100 7 0.258001 0.134959 0.238821
20169 7 0.252502 0.241611 0.223295
17504 3 0.36189 0.148098 0.24493
17545 6 0.324599 0.247124 0.24368
20094 5 0.298026 0.216328 0.188533
20164 5 0.256998 0.220924 0.191555
17827 9 0.375138 0.135255 0.210989
20090 5 0.256732 0.148567 0.191128
17538 5 0.353188 0.208257 0.190177
17551 1 0.32998 0.246063 0.190748
17531 1 0.325617 0.181577 0.189962
17549 7 0.286036 0.140404 0.21685
20203 6 0.265242 0.234472 0.226252
20170 7 0.271118 0.227219 0.219733
20368 9 0.267082 0.21516 0.240797
17543 5 0.354841 0.149783 0.195126
17814 9 0.346221 0.144094 0.243399
20085 2 0.279535 0.144145 0.195928
20086 8 0.265796 0.18215 0.213535
20087 2 0.27978 0.220776 0.196802
20159 4 0.281816 0.245751 0.200504
20088 5 0.276376 0.158979 0.205738
20093 4 0.273565 0.204272 0.205496
17547 7 0.342084 0.178831 0.211644
17540 3 0.336054 0.248641 0.210587
17579 6 0.326328 0.1825 0.211603
17534 8 0.366405 0.246346 0.213365
17546 7 0.322987 0.183257 0.218965
20136 6 0.282083 0.184699 0.226756
20413 7 0.285274 0.200467 0.229605
20402 7 0.276137 0.174983 0.233258
20127 3 0.267118 0.205323 0.24695
17571 3 0.361217 0.218958 0.245043
17580 7 0.337198 0.238344 0.241384
17815 9 0.364871 0.208112 0.239786
20367 9 0.265605 0.17543 0.24767
20123 3 0.261992 0.160488 0.248385
14916 5 0.497463 0.210482 0.190042
12407 7 0.483752 0.13632 0.219435
14985 4 0.482252 0.244235 0.197859
14912 5 0.453421 0.148578 0.19372
14921 7 0.449643 0.174933 0.21373
12408 7 0.478184 0.130514 0.230848
17461 2 0.377897 0.157105 0.198074
14991 5 0.455673 0.214739 0.193937
12329 7 0.441764 0.133456 0.232892
14913 5 0.49488 0.152433 0.189698
15275 9 0.479191 0.196554 0.210622
15274 9 0.492736 0.16409 0.209569
14995 7 0.416749 0.253968 0.216502
14941 7 0.40901 0.125705 0.212589
14908 2 0.476881 0.145859 0.197599
12353 7 0.488967 0.199715 0.242102
14920 7 0.427548 0.185131 0.219393
14910 3 0.477602 0.159916 0.208507
14957 7 0.428001 0.177952 0.238973
14994 7 0.432872 0.236899 0.216323
14956 6 0.434041 0.178979 0.212521
14979 1 0.425181 0.24083 0.190168
17467 3 0.386239 0.144111 0.208156
17537 4 0.378646 0.182445 0.199352
15261 9 0.474787 0.165221 0.242494
14915 3 0.485865 0.209991 0.209666
15262 9 0.453467 0.215699 0.243208
15027 6 0.425998 0.246192 0.21136
17850 7 0.381291 0.226653 0.230117
17539 5 0.396616 0.213519 0.188562
14947 3 0.462977 0.154436 0.243189
14905 7 0.388367 0.130399 0.243002
14925 1 0.428294 0.181503 0.192162
14919 6 0.416589 0.188666 0.241078
14997 7 0.381054 0.19851 0.216595
17533 2 0.375977 0.207264 0.195392
14996 7 0.385492 0.174599 0.219003
15026 6 0.381655 0.188505 0.222343
17584 6 0.381374 0.243418 0.227138
14958 7 0.404501 0.186878 0.235812
25381 7 0.00852178 0.248469 0.235311
22679 3 0.167191 0.14525 0.249311
22675 3 0.162224 0.0967912 0.2495
22796 7 0.110237 0.245879 0.216893
17854 9 0.323456 0.245254 0.216162
12331 7 0.470228 0.000503261 0.229482
25205 7 0.0460447 0.0017411 0.225452
22608 3 0.16717 0.0285815 0.24862
25299 5 0.0647994 0.157287 0.250028
22747 5 0.159284 0.220361 0.249864
25178 3 0.0324646 0.0559544 0.304997
25245 3 0.0258993 0.117199 0.305802
25251 5 0.018134 0.055664 0.285308
25246 4 0.0336801 0.088711 0.29374
25243 2 0.0351715 0.113156 0.294398
25224 1 0.0905824 0.0911847 0.290191
25179 5 0.060447 0.0576026 0.288893
25173 2 0.0366911 0.0632988 0.293194
22624 5 0.119711 0.059044 0.287599
22699 5 0.116138 0.119402 0.28985
25170 1 0.0843656 0.0281886 0.28821
25232 5 0.0816315 0.0881496 0.268781
25230 5 0.081662 0.0314134 0.266711
22671 1 0.10973 0.060917 0.267825
25171 1 0.014621 0.0563969 0.264161
25229 5 0.0414192 0.0276793 0.262998
25294 1 0.0101552 0.118793 0.26524
25306 5 0.0403901 0.0854754 0.264605
25226 2 0.062324 0.0944784 0.26098
25225 2 0.0639536 0.0204534 0.259893
25496 9 0.0341621 0.0692071 0.309713
25288 6 0.10146 0.0951915 0.310259
25218 6 0.0884233 0.0253243 0.308218
25497 9 0.0141235 0.108176 0.307763
25495 9 0.0341443 0.0190322 0.303957
22619 1 0.11638 0.122816 0.267467
25300 4 0.0617192 0.119098 0.259923
25257 7 0.106692 0.110745 0.310974
25248 5 0.0586632 0.12068 0.291392
25256 7 0.115633 0.086714 0.30993
1929 7 0.00584283 0.0740519 0.305348
25247 5 0.0170589 0.120524 0.286203
1930 7 0.00499045 0.02762 0.310124
25174 3 0.0346725 0.00428375 0.305858
22626 3 0.132747 0.12687 0.307224
22622 3 0.130707 0.0607323 0.307443
22623 4 0.137996 0.0262441 0.295697
22681 5 0.137589 0.0284197 0.263428
22620 2 0.137233 0.0511521 0.295724
19999 4 0.230803 0.0488587 0.300905
19993 2 0.234823 0.0673663 0.293415
20068 2 0.235185 0.116428 0.297156
20071 4 0.231931 0.0916567 0.297725
22625 5 0.159812 0.0606302 0.292882
22627 5 0.15724 0.118902 0.29039
22618 1 0.181404 0.0905461 0.288999
20076 5 0.218111 0.0632651 0.283728
22600 1 0.189105 0.0277737 0.287591
22609 5 0.17935 0.027255 0.268564
22678 5 0.18109 0.0935553 0.26783
19990 1 0.214241 0.058535 0.266131
22677 5 0.140659 0.0909521 0.265498
20129 5 0.238387 0.0944089 0.263719
20053 5 0.238923 0.0293023 0.264109
22602 2 0.16202 0.0352099 0.260719
22673 2 0.162802 0.0854877 0.260467
22676 4 0.163072 0.0601882 0.260133
19998 3 0.19134 0.0270059 0.306955
19994 5 0.22864 0.00520021 0.299393
17374 3 0.335406 -9.03276e-06 0.303977
19992 8 0.221303 0.0265455 0.308561
20119 1 0.210281 0.122554 0.268955
22943 9 0.130008 0.0482139 0.312311
20072 5 0.216921 0.12398 0.289495
686 7 -0.00078326 0.0410855 0.484321
22545 2 0.135686 0.0019895 0.292707
20000 5 0.258167 0.0668417 0.28848
17448 5 0.358436 0.120089 0.283854
17440 8 0.324335 0.0903276 0.306136
17446 3 0.29289 0.089606 0.305722
17442 5 0.331032 0.069364 0.296735
17447 4 0.327872 0.111453 0.296141
17443 4 0.338826 0.030437 0.290773
17439 2 0.338699 0.054262 0.288119
20048 1 0.290234 0.090091 0.286489
19989 1 0.283768 0.0303138 0.285731
17445 5 0.361135 0.0626074 0.284748
17444 5 0.318955 0.0567716 0.280335
20057 5 0.279786 0.0892431 0.266363
17495 1 0.309318 0.0611029 0.263041
17506 5 0.34021 0.0253874 0.263595
20054 5 0.280675 0.0301846 0.264581
17438 1 0.313935 0.124593 0.26252
17501 5 0.338007 0.0900392 0.260225
17421 2 0.360924 0.0333549 0.25751
20050 2 0.261979 0.100535 0.259698
20049 2 0.26029 0.0218573 0.258944
17497 2 0.360008 0.083157 0.254681
20040 6 0.28575 0.0392577 0.305693
17500 4 0.359954 0.0578984 0.25438
17369 2 0.335908 0.00463566 0.291601
20073 5 0.257296 0.122853 0.292239
20124 4 0.263089 0.125342 0.260101
17838 9 0.338902 0.0144634 0.308129
20005 7 0.29519 0.0513096 0.307797
20004 7 0.273365 0.0412062 0.310521
17857 9 0.283265 0.102759 0.307131
17502 5 0.38017 0.0906838 0.260817
17428 5 0.380318 0.0266527 0.265104
17437 1 0.385003 0.0906967 0.282083
14860 6 0.492702 0.0885656 0.305314
15286 9 0.421023 0.0518232 0.303222
14822 3 0.431396 0.0636648 0.302284
14891 4 0.437562 0.0915289 0.289297
14817 2 0.437213 0.066653 0.290267
14887 2 0.43763 0.116325 0.287076
14823 5 0.461103 0.0572656 0.287879
17418 1 0.388961 0.0283088 0.28459
14893 5 0.459886 0.123123 0.283732
14897 5 0.419154 0.0583451 0.282879
14892 5 0.41817 0.120841 0.279628
14866 1 0.490494 0.0900507 0.284669
14814 1 0.483135 0.0254345 0.28602
14873 5 0.47765 0.0298972 0.265475
14876 5 0.482361 0.0894086 0.265114
14815 1 0.413562 0.058286 0.262026
14943 1 0.409664 0.121069 0.262437
14954 5 0.44035 0.0924373 0.260735
17412 6 0.398406 0.0289755 0.305953
14869 2 0.464315 0.0949583 0.25683
14872 5 0.436155 0.0273986 0.264043
14867 2 0.458113 0.0207823 0.259523
17380 7 0.407755 0.0163165 0.306987
14948 4 0.466953 0.120042 0.253951
22919 9 0.16239 0.113474 0.25037
17379 7 0.386886 0.0283124 0.311673
25296 2 0.0639301 0.144263 0.260356
25241 1 0.0826186 0.153588 0.288385
25249 3 0.0240195 0.181236 0.30252
25360 6 0.0918595 0.221484 0.306719
25320 4 0.0307132 0.216196 0.291666
25317 2 0.0320928 0.241334 0.291853
25295 1 0.0860254 0.217682 0.286603
25250 5 0.0567806 0.185797 0.289039
25244 2 0.0321159 0.191558 0.291768
22695 5 0.116953 0.187321 0.284992
25325 5 0.0186414 0.180751 0.283042
25302 5 0.0807011 0.151775 0.268331
25305 5 0.0805713 0.216998 0.26763
22742 1 0.109872 0.184246 0.266988
25301 5 0.0409366 0.152633 0.264048
25242 1 0.0145641 0.181204 0.26292
25376 5 0.0388921 0.220613 0.263899
25298 2 0.062086 0.220893 0.259636
25289 6 0.0880381 0.163938 0.307531
25366 1 0.00861642 0.245782 0.263425
25331 7 0.103784 0.233166 0.306561
25498 9 0.0147945 0.191642 0.306337
25371 4 0.0652701 0.244659 0.255192
22690 1 0.114701 0.248453 0.263058
25322 5 0.0557361 0.248102 0.288883
25254 7 0.0843941 0.178273 0.310527
22945 9 0.116605 0.17703 0.306978
22773 5 0.118609 0.245854 0.283088
21498 6 0.2626 0.244777 0.499653
25330 7 0.0816241 0.22605 0.312924
1996 7 0.0484943 0.242292 0.314341
25304 4 0.0607976 0.203557 0.251159
1862 9 0.00457299 0.236994 0.422892
22944 9 0.138976 0.138817 0.311325
20070 3 0.232803 0.126413 0.309547
22693 3 0.13082 0.184738 0.304515
22621 2 0.137061 0.129467 0.294964
22704 7 0.20488 0.144793 0.310053
22694 4 0.135927 0.153699 0.292341
22691 2 0.135803 0.179425 0.292533
22748 4 0.166717 0.183106 0.257284
22674 2 0.163505 0.157188 0.26001
22754 5 0.140825 0.152998 0.264347
20202 5 0.238404 0.215284 0.261078
22672 1 0.186717 0.153745 0.289204
20142 4 0.237955 0.216162 0.291433
20147 5 0.216098 0.181628 0.288699
22696 5 0.158209 0.18894 0.28968
20074 3 0.231166 0.192262 0.306846
20069 2 0.235766 0.19154 0.294623
22689 1 0.184555 0.218903 0.287708
20392 9 0.217825 0.184783 0.308664
20139 2 0.237756 0.241333 0.292059
20067 1 0.213441 0.183906 0.267367
22680 5 0.180971 0.151098 0.268113
22750 5 0.180112 0.215972 0.267512
22749 5 0.137602 0.209692 0.264188
20125 5 0.238882 0.157796 0.264427
22744 2 0.162386 0.207845 0.259908
22737 6 0.190396 0.220537 0.307448
22736 6 0.194416 0.157158 0.308786
22703 7 0.191658 0.236861 0.307331
20393 9 0.239371 0.228422 0.307554
22698 5 0.158484 0.245937 0.289075
22702 7 0.205837 0.215314 0.309297
20190 1 0.209212 0.244387 0.265061
20141 3 0.237472 0.243773 0.304712
22108 2 0.192969 0.249258 0.440029
19997 5 0.259718 -0.00110417 0.287399
14381 3 0.500787 0.247519 0.426707
17524 5 0.317024 0.124121 0.279087
17441 2 0.335358 0.12703 0.287674
17572 4 0.368308 0.184519 0.256002
20126 5 0.278999 0.160535 0.265747
20075 5 0.259006 0.181322 0.292263
20066 1 0.282107 0.152035 0.287063
17516 2 0.335614 0.176617 0.291458
17518 3 0.333235 0.185699 0.303175
20079 7 0.306091 0.204536 0.305167
20114 6 0.29709 0.218254 0.307051
17519 4 0.334917 0.150735 0.291936
17521 5 0.357731 0.184102 0.286841
20120 1 0.288085 0.215637 0.286225
17520 5 0.316701 0.185646 0.284757
17595 5 0.317149 0.243579 0.285718
17567 1 0.309107 0.186052 0.264013
20128 5 0.278226 0.216347 0.265882
17577 5 0.339298 0.15639 0.260435
17573 5 0.340286 0.212245 0.261465
17498 2 0.362814 0.159341 0.256368
20121 2 0.260859 0.150419 0.259291
17569 2 0.363093 0.209255 0.256555
20122 2 0.261683 0.219889 0.257042
20196 4 0.265123 0.246196 0.254959
20113 6 0.280977 0.143203 0.306605
17839 9 0.333332 0.173261 0.30792
17529 7 0.3629 0.222846 0.304867
17530 7 0.360828 0.200586 0.307699
17840 9 0.327226 0.234622 0.305119
17523 5 0.359322 0.245568 0.287884
17515 1 0.314217 0.245308 0.264412
20081 7 0.266959 0.135779 0.303364
17522 3 0.335376 0.248253 0.304333
20144 5 0.25925 0.251583 0.288011
17561 6 0.372375 0.210704 0.306339
20080 7 0.294325 0.216069 0.314884
15020 4 0.461001 0.248912 0.260676
17505 5 0.380494 0.151582 0.263663
17574 5 0.381227 0.220603 0.263428
17514 1 0.382686 0.215178 0.285117
14890 5 0.431096 0.131945 0.295725
14945 2 0.461989 0.145088 0.255049
14886 1 0.416454 0.184699 0.261879
14894 3 0.393086 0.15312 0.303324
14972 5 0.418759 0.187708 0.28105
14896 5 0.459111 0.184398 0.2861
14888 8 0.424165 0.151664 0.305566
12342 3 0.494476 0.211379 0.304003
14895 4 0.431157 0.175862 0.298177
14964 2 0.436265 0.241793 0.292643
14967 4 0.43743 0.216708 0.292519
14889 2 0.436743 0.192261 0.289387
17496 1 0.388872 0.154209 0.284055
14944 1 0.490022 0.215335 0.285596
14885 1 0.482541 0.154681 0.284036
14953 5 0.482047 0.215965 0.266731
14936 6 0.48319 0.152615 0.304586
14950 5 0.478724 0.155974 0.262451
15025 5 0.441191 0.21257 0.262108
14949 5 0.439656 0.152954 0.259203
14946 2 0.462736 0.224149 0.259424
14901 7 0.469887 0.148428 0.308361
14969 5 0.458774 0.247561 0.288272
12753 9 0.481354 0.211626 0.309551
15305 9 0.381709 0.148105 0.308427
15015 1 0.41072 0.246421 0.264442
14968 5 0.417264 0.247047 0.285083
25184 7 0.101259 0.0230546 0.313109
1336 3 0.00326124 0.114282 0.425677
25183 7 0.076169 0.0175047 0.311541
24544 6 0.088094 0.0229533 0.3379
24654 7 0.0853611 0.0616994 0.332642
24655 7 0.0924333 0.0809668 0.326144
24614 6 0.09065 0.0769979 0.333562
24820 9 0.0269365 0.0492804 0.337101
24550 1 0.0939343 0.0860436 0.354428
24571 2 0.0385298 0.0605458 0.351939
24576 3 0.0308088 0.0436133 0.343754
24577 5 0.0622608 0.0550215 0.355427
24639 2 0.0389289 0.110619 0.351298
24643 4 0.0378264 0.084992 0.348582
24644 5 0.0209007 0.114979 0.360062
24645 5 0.0633485 0.116745 0.354288
24649 5 0.0215139 0.0581215 0.36181
24568 1 0.0889532 0.0251416 0.357926
22022 5 0.120348 0.0610289 0.355948
22097 5 0.121996 0.122087 0.356189
24582 7 0.102383 0.0254905 0.333719
24581 7 0.0811755 0.0108436 0.333485
24819 9 0.0346253 0.0117067 0.341578
20391 9 0.225637 0.115146 0.313375
22267 9 0.123808 0.0624006 0.336451
22665 6 0.121751 0.0201379 0.323203
22633 7 0.124997 0.00542456 0.327144
22020 3 0.136655 0.0525282 0.33767
22634 7 0.130612 0.0295423 0.327783
20409 9 0.180877 0.016029 0.311702
22024 3 0.136196 0.115534 0.336769
22032 7 0.20784 0.0128086 0.334682
22021 4 0.140316 0.0248463 0.3535
20065 6 0.24067 0.0270517 0.320898
20416 7 0.243465 0.042314 0.325282
22631 7 0.164461 0.071866 0.335337
22632 7 0.162243 0.0960991 0.333807
19714 9 0.233697 0.0772586 0.334517
22666 6 0.173635 0.0855215 0.33464
19468 3 0.232612 0.112886 0.33585
19398 3 0.234943 0.0617961 0.336927
19466 2 0.237726 0.112252 0.349024
19469 4 0.23873 0.0869743 0.351653
19393 2 0.238702 0.0621724 0.34936
19470 5 0.21831 0.121474 0.355186
19474 5 0.218032 0.0535717 0.35571
22016 1 0.186181 0.0875012 0.354315
22018 2 0.139605 0.0498597 0.350377
22023 5 0.16175 0.0591138 0.354369
22025 5 0.161547 0.115879 0.352929
21925 1 0.191716 0.0242961 0.356301
21991 6 0.198114 0.0269928 0.335599
22031 7 0.209908 0.0372329 0.333028
20415 7 0.239939 0.0143976 0.327015
19715 9 0.242986 0.122918 0.332801
22268 9 0.12097 0.113489 0.335267
20039 6 0.29304 0.0158523 0.333962