ITEM: TIMESTEP
36000
ITEM: NUMBER OF ATOMS
25520
ITEM: BOX BOUNDS pp pp pp
6.5472179500000005e-01 5.9043821794999999e+01
-8.9085736299999996e-01 5.8061142637000003e+01
-1.0494733796999999e+01 1.0977046620300000e+02
ITEM: ATOMS id type xs ys zs
25292 7 0.0863509 0.0406402 0.108823
25293 7 0.0601882 0.0516662 0.108273
25252 6 0.0769993 0.0527443 0.111864
22906 9 0.106868 0.0690365 0.108674
22658 3 0.125321 0.0277255 0.10711
25253 6 0.0666258 0.110139 0.11386
25220 7 0.0225885 0.0409721 0.110303
25182 6 0.0316477 0.0516465 0.106143
25219 7 0.0276843 0.0660028 0.10911
25290 7 0.0598969 0.097327 0.117436
25278 8 0.0120905 0.113492 0.117576
25291 7 0.0820268 0.104469 0.111193
25280 5 0.026872 0.0870351 0.120328
25214 3 0.0163813 0.0104661 0.124258
22662 3 0.12144 0.0755036 0.10834
22905 9 0.129932 0.0437459 0.108143
22729 4 0.127558 0.112167 0.118514
20106 3 0.234757 0.0870891 0.0978913
20036 3 0.234439 0.00895298 0.0994641
20354 9 0.226467 0.119953 0.0993571
20107 4 0.23727 0.0491923 0.107943
20104 2 0.235229 0.0757167 0.109395
20031 2 0.235029 0.0238124 0.110846
20108 5 0.213105 0.0809978 0.11582
22700 6 0.17519 0.113499 0.0986928
22656 2 0.13072 0.0142516 0.118077
20112 5 0.216082 0.018894 0.119495
22657 2 0.128904 0.0860743 0.119761
22654 1 0.182461 0.0498739 0.119307
22636 1 0.184461 0.111404 0.119642
22661 5 0.155003 0.0202959 0.121053
22663 5 0.153612 0.078104 0.120889
20353 9 0.243763 0.0816284 0.0922372
22741 7 0.189896 0.12081 0.0962289
14891 4 0.443685 0.0581079 0.248833
20352 9 0.249947 0.00968102 0.0963853
20117 7 0.279915 0.0433826 0.0952799
17451 6 0.352194 0.100008 0.080719
17489 7 0.346403 0.0869712 0.0844977
20077 6 0.282969 0.0581631 0.0981703
17480 3 0.323316 0.0221981 0.100523
17799 9 0.327444 0.0381592 0.0998052
17800 9 0.313836 0.0672874 0.0986742
17484 3 0.328716 0.0729837 0.098399
20118 7 0.267033 0.0600576 0.100923
17555 4 0.331859 0.112255 0.108663
17479 2 0.334672 0.0857424 0.109596
20042 7 0.291424 0.00391439 0.0927186
17478 2 0.33351 0.0118376 0.111475
20109 5 0.255807 0.0835214 0.115648
17485 5 0.358871 0.0775665 0.113546
20037 5 0.257304 0.0171048 0.116183
17483 5 0.35785 0.0214017 0.115005
20102 1 0.279949 0.113622 0.115638
17560 5 0.315087 0.0795715 0.117904
17482 5 0.316764 0.0191143 0.120497
20011 1 0.289381 0.0505351 0.11976
20003 6 0.275506 0.00182223 0.0901751
17566 7 0.376635 0.103078 0.0867273
17490 7 0.345248 0.11252 0.084915
17565 7 0.401438 0.101765 0.0918868
17525 6 0.386391 0.107198 0.0938308
14898 6 0.487723 0.0536363 0.0907611
14940 7 0.472726 0.0602518 0.0888298
14856 3 0.432355 0.00872744 0.0973125
14928 3 0.430128 0.0865493 0.0954032
15247 9 0.435909 0.101735 0.0954138
14929 4 0.433473 0.0487425 0.105637
14851 2 0.436653 0.0224176 0.10802
14926 2 0.437073 0.0740497 0.106563
14939 7 0.492081 0.0458352 0.0843952
14931 5 0.460301 0.0819721 0.109943
14857 5 0.460538 0.016121 0.111214
14924 1 0.487338 0.113628 0.111418
17459 1 0.387315 0.112936 0.11514
15246 9 0.416856 0.00342966 0.0964219
14832 1 0.491915 0.0503208 0.112656
14934 5 0.419165 0.0159212 0.116722
17476 1 0.384741 0.0511777 0.116892
14930 5 0.420785 0.0822259 0.115733
22726 8 0.10307 0.176482 0.10837
22732 3 0.0744527 0.183205 0.114501
22957 9 0.0598997 0.187987 0.11047
22728 5 0.116323 0.152587 0.114363
2032 7 0.0188703 0.19466 0.0990514
1995 6 0.0273568 0.201358 0.105297
2033 7 0.020172 0.197793 0.111917
22733 4 0.122276 0.201323 0.107469
25364 7 0.0285073 0.237244 0.104965
22802 4 0.117776 0.24145 0.117307
14972 5 0.421067 0.151622 0.23107
15031 7 0.394006 0.220276 0.191865
25459 9 0.0144022 0.231936 0.123182
22727 2 0.125133 0.215251 0.118372
22667 7 0.130082 0.120325 0.0885368
22740 7 0.162194 0.122233 0.0950588
22739 7 0.120358 0.241782 0.0984627
22630 6 0.133806 0.133744 0.0924832
22668 7 0.131372 0.129885 0.100033
22725 2 0.12807 0.137773 0.122851
20115 7 0.21795 0.14695 0.080035
20078 6 0.206494 0.156821 0.0773227
20148 6 0.159874 0.182074 0.102208
20188 7 0.149764 0.169762 0.10068
20189 7 0.148877 0.19546 0.105225
20174 8 0.206422 0.241688 0.0946727
20110 3 0.219673 0.135114 0.098641
20116 7 0.200009 0.162991 0.0840128
20176 5 0.219781 0.219024 0.101607
20177 4 0.229177 0.176184 0.106374
20105 2 0.231354 0.149886 0.108615
20173 2 0.230088 0.20168 0.109367
20180 3 0.176079 0.245607 0.0994306
22707 1 0.182297 0.240628 0.119153
22734 5 0.150738 0.214678 0.121009
20178 5 0.214641 0.206373 0.119669
22731 5 0.153093 0.144285 0.124322
22723 1 0.177698 0.176797 0.121289
20183 5 0.214649 0.143064 0.117648
20405 9 0.162746 0.244224 0.0935981
17802 9 0.319751 0.201126 0.0898199
17554 3 0.330919 0.143719 0.0941465
17801 9 0.33205 0.160061 0.0931466
17558 3 0.327568 0.192598 0.0957087
17526 6 0.367126 0.199431 0.0799876
17552 2 0.334394 0.138369 0.10684
17625 4 0.329549 0.235701 0.101353
17553 2 0.33242 0.210598 0.105641
20111 5 0.254501 0.14292 0.112471
20179 5 0.255344 0.20736 0.111896
17557 5 0.35743 0.14685 0.110904
17559 5 0.357012 0.206319 0.109012
17631 5 0.316038 0.209224 0.115826
20171 1 0.280654 0.240336 0.11366
20084 1 0.285682 0.176865 0.114478
17563 7 0.353558 0.199119 0.0845684
17556 5 0.313053 0.14722 0.113123
17564 7 0.361223 0.204989 0.0728299
15248 9 0.423964 0.141889 0.0892332
17637 7 0.378371 0.224596 0.0854669
14899 6 0.403767 0.166296 0.0836141
14937 7 0.41514 0.173968 0.0878699
14938 7 0.393045 0.178148 0.0829415
17636 7 0.406458 0.226416 0.0892612
17596 6 0.390995 0.234949 0.0893269
15002 3 0.433724 0.214176 0.0940657
14932 3 0.432939 0.133652 0.0945514
15249 9 0.4431 0.228215 0.0943172
15000 2 0.437153 0.200797 0.105123
15003 4 0.43208 0.174329 0.103071
14927 2 0.436792 0.148972 0.105348
14933 5 0.461132 0.143814 0.107483
15005 5 0.462071 0.205202 0.108813
14998 1 0.489792 0.237196 0.111162
15004 5 0.417365 0.208544 0.112801
17532 1 0.388859 0.238452 0.11074
17550 1 0.384378 0.176566 0.113175
14907 1 0.494432 0.1748 0.111897
15008 5 0.420879 0.141116 0.11426
14973 6 0.49512 0.230431 0.0897611
15014 7 0.491033 0.224531 0.082919
12353 7 0.495785 0.15221 0.189129
25287 5 0.0182271 0.0215844 0.144068
25283 5 0.056351 0.0842065 0.135349
25282 5 0.0130559 0.0834385 0.139196
25281 4 0.0326978 0.0492736 0.130389
25277 2 0.032836 0.075696 0.131398
25275 1 0.0785391 0.113249 0.134841
25268 5 0.0474288 0.0552246 0.160093
25265 5 0.0835939 0.113771 0.156836
25264 5 0.0441542 0.113721 0.164632
25258 1 0.014159 0.0787603 0.161194
22660 5 0.113845 0.0211051 0.127066
25215 5 0.0558563 0.0143438 0.133277
25209 2 0.0311147 0.0229848 0.133237
25207 1 0.0200418 0.0194365 0.161261
25198 5 0.08758 0.0468598 0.154108
25191 2 0.0720325 0.0551965 0.163713
22735 5 0.112918 0.0810696 0.129777
25188 1 0.0856702 0.0490283 0.132732
25263 4 0.0771029 0.0796047 0.167952
25260 2 0.0700492 0.106089 0.167159
22635 1 0.115584 0.0180538 0.151441
22655 1 0.120202 0.0801361 0.152005
25262 3 0.0782828 0.117609 0.177904
25197 4 0.0699207 0.0360085 0.17257
25190 8 0.0609588 0.0141651 0.181758
25196 3 0.0295863 0.0174048 0.180554
25308 6 0.0120296 0.0790848 0.182498
25510 9 0.018464 0.0144098 0.187664
25309 7 0.0751194 0.0572645 0.191189
25484 9 0.0954459 0.118793 0.177771
25310 7 0.0800258 0.080077 0.186679
22958 9 0.121133 0.0791425 0.177031
22683 6 0.13064 0.021136 0.172522
22650 7 0.132277 0.029852 0.179314
20029 1 0.220297 0.0191086 0.142138
20083 1 0.213456 0.0820545 0.140519
22637 2 0.170241 0.0463706 0.149433
22639 2 0.173084 0.116579 0.150828
22642 5 0.145531 0.0510195 0.147095
22643 5 0.1897 0.0556221 0.14183
22646 5 0.188717 0.11074 0.140872
22716 5 0.147539 0.109359 0.148509
22641 4 0.171382 0.0209919 0.152421
22645 4 0.176314 0.103885 0.161657
22640 5 0.169217 0.0605216 0.159925
20060 6 0.218473 0.020149 0.163366
22644 3 0.132575 0.0814006 0.170821
22638 8 0.165386 0.0821143 0.170134
20025 7 0.220582 0.0340023 0.168159
20090 5 0.240335 0.105848 0.141056
22688 6 0.17991 0.074713 0.184403
20130 6 0.227705 0.0601222 0.175661
20095 5 0.244911 0.0496563 0.145502
20100 7 0.213581 0.0664344 0.177505
20024 7 0.202886 0.0148131 0.164587
22719 7 0.130651 0.115076 0.175171
20101 7 0.230247 0.0492029 0.181625
20131 6 0.271027 0.0843233 0.175381
20099 7 0.257663 0.0754782 0.177102
20098 7 0.268794 0.089181 0.167691
20379 9 0.258909 0.0455321 0.166363
17458 1 0.317442 0.0214204 0.142624
17464 5 0.347499 0.0546523 0.143479
17477 1 0.318204 0.0834608 0.139192
17543 5 0.345783 0.114547 0.140176
20013 2 0.268315 0.0556565 0.150042
20020 5 0.28499 0.0484125 0.140832
20085 2 0.264301 0.107034 0.145718
20091 5 0.281324 0.113469 0.136602
20089 4 0.269595 0.0820181 0.15095
17508 6 0.325455 0.0835915 0.160457
20019 3 0.272471 0.0429466 0.161645
17466 6 0.324814 0.0265494 0.164209
17473 7 0.318821 0.094494 0.165664
17493 7 0.315177 0.0335113 0.168974
17472 7 0.340981 0.0848286 0.162273
17460 2 0.37129 0.0490782 0.148008
17461 2 0.36958 0.117917 0.144769
17494 7 0.337631 0.037282 0.165914
17510 7 0.28821 0.0536115 0.18323
17548 7 0.298592 0.102109 0.176297
17578 6 0.303113 0.117494 0.178813
20088 5 0.26324 0.121268 0.15643
17463 4 0.375115 0.0230025 0.147891
17826 9 0.374349 0.0756394 0.159506
17462 3 0.369517 0.059945 0.159693
17471 6 0.297943 0.0486743 0.188797
17509 7 0.306327 0.0623223 0.190758
20378 9 0.268695 0.0107136 0.163368
17467 3 0.374978 0.105942 0.156235
15272 9 0.479335 0.0126418 0.155557
14959 7 0.380212 0.0418323 0.185682
12352 7 0.502013 0.127639 0.188639
17827 9 0.3916 0.107218 0.158182
14840 5 0.487659 0.0537598 0.132675
14834 2 0.472319 0.0582269 0.142438
14849 1 0.422914 0.0196318 0.138828
14906 1 0.418478 0.0832708 0.137405
14908 2 0.472012 0.11009 0.141491
14912 5 0.4484 0.117704 0.137187
14917 5 0.44956 0.0486537 0.139022
17465 5 0.390062 0.0571276 0.140175
17468 5 0.384562 0.112811 0.134855
14911 4 0.471178 0.0844959 0.144097
14923 7 0.41252 0.00987684 0.163137
14839 3 0.479074 0.0472048 0.15346
14910 3 0.475426 0.121675 0.153268
14914 6 0.425403 0.0929256 0.158602
14955 6 0.421924 0.0221859 0.160235
14942 7 0.438711 0.102871 0.157445
14913 5 0.490484 0.114729 0.133313
15273 9 0.473855 0.0559041 0.160058
14941 7 0.431105 0.0837281 0.164386
14922 7 0.414316 0.0338373 0.164808
15308 7 0.446395 0.0218347 0.169449
12407 7 0.484964 0.111464 0.166089
14960 7 0.383107 0.0500057 0.173196
12291 6 0.464221 0.0652513 0.171868
12366 6 0.487415 0.105741 0.173535
14884 6 0.455643 0.0144589 0.176194
14918 6 0.391234 0.0437386 0.179532
12329 7 0.470823 0.0782428 0.175922
12408 7 0.474233 0.111059 0.178274
12328 7 0.466503 0.0524252 0.177151
25353 3 0.0115307 0.216327 0.123729
25285 4 0.0190825 0.137274 0.126464
15017 2 0.461752 0.240149 0.207676
25377 6 0.0119928 0.131551 0.184909
25359 5 0.0171958 0.14984 0.146687
25356 5 0.0489158 0.212438 0.13395
25355 5 0.0101456 0.211396 0.144049
25354 4 0.0209655 0.179035 0.130804
25351 2 0.0243917 0.205486 0.134217
25349 1 0.0771989 0.237751 0.132737
25342 5 0.0497922 0.17482 0.165766
25338 5 0.04873 0.233595 0.163897
25334 2 0.0743384 0.230463 0.164164
25332 1 0.0177578 0.205328 0.167186
25286 5 0.053117 0.152257 0.134663
25279 2 0.0272125 0.154434 0.13441
25276 1 0.0207714 0.143486 0.165275
25267 5 0.0861643 0.174053 0.153882
25261 2 0.0755301 0.179178 0.165289
25259 1 0.0825573 0.176916 0.13302
22730 5 0.114715 0.140415 0.133873
22807 5 0.113069 0.205014 0.128344
25337 4 0.0775905 0.205292 0.168009
25339 5 0.0862718 0.235114 0.153026
22706 1 0.115573 0.140886 0.153569
22724 1 0.123043 0.203618 0.14981
25485 9 0.082088 0.149189 0.174801
25266 3 0.0878958 0.164977 0.174508
25336 3 0.0831548 0.245296 0.174469
25346 7 0.0506489 0.20561 0.183027
25486 9 0.0995156 0.246673 0.174009
22966 7 0.117312 0.19851 0.185048
25378 6 0.0356709 0.206689 0.186953
14889 2 0.43823 0.156298 0.240577
20103 1 0.220949 0.143994 0.138813
20154 1 0.213824 0.205597 0.138787
22708 2 0.171797 0.16921 0.152732
22709 2 0.172221 0.244255 0.150321
22712 5 0.147491 0.176905 0.150802
22713 5 0.185949 0.176858 0.143014
22715 5 0.187477 0.235504 0.141136
22790 5 0.147681 0.235656 0.147853
22711 4 0.175779 0.142875 0.152567
20092 3 0.226534 0.15128 0.158834
22714 3 0.180422 0.23696 0.162548
22710 3 0.180848 0.180997 0.163631
22932 9 0.17365 0.196017 0.164478
20406 9 0.212921 0.156395 0.163876
22933 9 0.196823 0.233725 0.162271
22756 6 0.124852 0.13089 0.173763
20204 6 0.223179 0.200093 0.159021
20167 7 0.232854 0.185126 0.159017
20168 7 0.208469 0.193714 0.162187
20160 5 0.245421 0.241778 0.140042
22720 7 0.132363 0.141016 0.180001
22955 7 0.126739 0.22432 0.183731
20164 5 0.245673 0.172017 0.138032
22651 7 0.146905 0.016243 0.170993
20086 8 0.256671 0.146335 0.164099
22762 6 0.130902 0.207874 0.188
20169 7 0.19547 0.166583 0.178047
17549 7 0.288454 0.126094 0.179307
20136 6 0.259011 0.149562 0.180256
17547 7 0.30977 0.128597 0.164506
17546 7 0.330061 0.126027 0.156366
17531 1 0.312761 0.143021 0.136231
17538 5 0.345181 0.173576 0.137736
17551 1 0.318246 0.204407 0.135108
17612 5 0.345983 0.232918 0.134147
20087 2 0.268344 0.180453 0.143633
20094 5 0.289845 0.173227 0.136936
20156 2 0.268351 0.232905 0.144117
20161 5 0.285773 0.243173 0.135669
20159 4 0.266634 0.20673 0.143351
20093 4 0.265939 0.168469 0.154405
17536 5 0.36635 0.183931 0.153551
17540 3 0.320293 0.206485 0.154896
17535 2 0.3668 0.241291 0.140338
17854 9 0.307527 0.205306 0.160711
20158 3 0.272718 0.238964 0.156652
17579 6 0.31562 0.134747 0.157036
17534 8 0.350766 0.207449 0.159705
17541 4 0.363064 0.229252 0.151329
17533 2 0.368646 0.169804 0.143108
17618 7 0.268214 0.191687 0.167644
17651 6 0.27641 0.200013 0.173038
17617 7 0.277409 0.215631 0.169739
17584 6 0.35423 0.209406 0.17594
17850 7 0.367114 0.198997 0.179586
17861 7 0.356937 0.224967 0.179931
17537 4 0.371635 0.144163 0.147163
20402 7 0.249257 0.138088 0.185251
20413 7 0.2521 0.16576 0.18355
17580 7 0.299499 0.207626 0.186148
14921 7 0.438524 0.156339 0.156106
15274 9 0.473648 0.138717 0.152511
14916 5 0.487601 0.173995 0.132998
14987 5 0.491458 0.241155 0.133854
14909 2 0.468963 0.181442 0.14151
14925 1 0.419148 0.145898 0.13542
14979 1 0.413647 0.209983 0.13455
14981 2 0.471318 0.232843 0.140908
14986 5 0.448632 0.237867 0.134563
14991 5 0.445337 0.176359 0.137124
17539 5 0.384638 0.178047 0.134117
17542 5 0.387662 0.232762 0.133761
14985 4 0.474778 0.206873 0.143302
14995 7 0.397985 0.197036 0.157825
15275 9 0.486012 0.171159 0.15597
14994 7 0.423536 0.201138 0.161017
15027 6 0.412317 0.203735 0.155573
14915 3 0.470171 0.169556 0.153581
14956 6 0.424794 0.146888 0.156804
14920 7 0.419788 0.15122 0.163996
14997 7 0.379334 0.169696 0.179505
14996 7 0.383685 0.163534 0.167456
15026 6 0.391195 0.166675 0.174117
14984 5 0.464615 0.244417 0.15178
25272 7 0.0127109 0.0946572 0.184101
25471 9 0.0658975 0.0186141 0.222981
25517 7 0.0727962 0.0213186 0.202693
25236 7 0.0178705 0.0138697 0.210167
25237 7 0.0264088 0.0326791 0.21789
22671 1 0.112652 0.0283065 0.235927
25472 9 0.0668457 0.0546923 0.209441
25311 7 0.0183248 0.09338 0.208808
25300 4 0.0648909 0.0874485 0.224294
25296 2 0.0634314 0.113579 0.227811
25270 6 0.0821853 0.0716022 0.193533
25269 6 0.00742278 0.0909605 0.21524
25240 6 0.079468 0.0181956 0.195072
25231 3 0.0635603 0.0459689 0.216034
25226 2 0.0632345 0.0617869 0.226645
22760 7 0.10344 0.0827082 0.204537
25306 5 0.0396726 0.0562489 0.231952
25201 6 0.0156274 0.0218631 0.217434
25171 1 0.015612 0.0270755 0.238579
25294 1 0.0104904 0.0883401 0.236589
25301 5 0.0402632 0.111232 0.23394
25232 5 0.08239 0.0559619 0.234729
25302 5 0.0812433 0.118895 0.236381
22619 1 0.114991 0.0876104 0.230839
22717 6 0.114008 0.0880988 0.210583
22685 7 0.108792 0.0495817 0.194725
22759 7 0.12552 0.098652 0.207321
25506 7 0.0911531 0.00336768 0.196528
25227 3 0.0733319 0.00488125 0.223996
22649 6 0.124475 0.0470281 0.193153
20023 6 0.169897 0.0078285 0.195702
22965 7 0.185477 0.0923022 0.187391
22684 7 0.132571 0.0484828 0.199916
22680 5 0.183043 0.115684 0.225723
22754 5 0.140278 0.11789 0.225931
20096 6 0.218425 0.02577 0.203342
20097 6 0.211448 0.093158 0.204674
20133 7 0.209928 0.0841047 0.197861
20134 7 0.232712 0.0348047 0.204233
22673 2 0.162718 0.0507765 0.21941
22675 3 0.160083 0.0611646 0.207269
22676 4 0.163996 0.0244356 0.21977
22679 3 0.161089 0.106205 0.207782
22919 9 0.151876 0.0760652 0.208075
22920 9 0.174862 0.0983516 0.206485
22954 7 0.168609 0.0687327 0.190829
20132 7 0.227114 0.0976712 0.205512
22678 5 0.185256 0.0591504 0.224943
22677 5 0.14256 0.0550533 0.227458
22674 2 0.162205 0.121346 0.21848
19990 1 0.216263 0.026157 0.22479
20119 1 0.211401 0.0875226 0.225848
20129 5 0.240395 0.0548844 0.220176
20076 5 0.213056 0.0340294 0.247239
20125 5 0.241437 0.117275 0.217668
20072 5 0.214723 0.0866272 0.247317
22672 1 0.185979 0.114384 0.248
20135 7 0.226231 0.0123151 0.201252
20061 7 0.159184 0.019111 0.198002
20062 7 0.184275 0.0147058 0.197352
22618 1 0.182079 0.0531115 0.24843
22602 2 0.163747 -0.000453586 0.224052
20073 5 0.259512 0.0931978 0.246726
17441 2 0.335623 0.0945358 0.246924
17445 5 0.3594 0.0263726 0.243639
17448 5 0.360735 0.0889609 0.243687
17444 5 0.31821 0.0237731 0.238476
17524 5 0.317411 0.0887506 0.237619
25370 3 0.0707021 0.244407 0.215003
17503 6 0.318022 0.00925729 0.199389
17544 6 0.315966 0.0954395 0.198166
17582 7 0.331239 0.0996286 0.200432
17583 7 0.311001 0.104743 0.191508
20050 2 0.263903 0.0600868 0.215319
20056 3 0.269013 0.042202 0.20592
20121 2 0.264949 0.112497 0.212265
20124 4 0.264391 0.0852572 0.211609
20366 9 0.281633 0.0466859 0.200813
17501 5 0.339435 0.0547763 0.214938
20057 5 0.280718 0.0550088 0.225001
17497 2 0.362295 0.0459552 0.211771
17495 1 0.310468 0.0193421 0.220358
17438 1 0.316566 0.0854656 0.219313
17457 7 0.315711 0.0174794 0.193007
17500 4 0.36234 0.0198653 0.2121
17499 3 0.368441 0.0537935 0.199623
17813 9 0.36394 0.0691049 0.198103
17577 5 0.341401 0.117433 0.216259
20048 1 0.287498 0.0562607 0.24202
17498 2 0.36493 0.120682 0.210967
17504 3 0.366617 0.100923 0.201859
20365 9 0.264748 0.00746669 0.202933
20066 1 0.283763 0.120141 0.243005
20123 3 0.264051 0.123794 0.200404
17439 2 0.335788 0.0202776 0.247407
20126 5 0.282832 0.120885 0.220567
20000 5 0.254699 0.0213193 0.246041
14893 5 0.462867 0.0901598 0.239813
17437 1 0.385636 0.0562315 0.240252
14897 5 0.419227 0.0259761 0.241598
14892 5 0.421732 0.0860808 0.235826
17814 9 0.382872 0.100586 0.199184
14954 5 0.440844 0.059184 0.213709
14950 5 0.483145 0.119774 0.212916
14868 8 0.447667 0.0188576 0.191513
14869 2 0.463955 0.0593138 0.208126
14874 3 0.418715 0.0163922 0.198076
14875 4 0.458689 0.0417192 0.198914
14904 7 0.427246 0.076051 0.195746
14905 7 0.404574 0.0658384 0.193701
14945 2 0.464268 0.110923 0.205153
14948 4 0.466384 0.0847611 0.203968
14951 6 0.411633 0.0798568 0.195616
15303 9 0.403522 0.0171588 0.193902
14949 5 0.440961 0.119564 0.209316
17505 5 0.382774 0.115493 0.219643
17502 5 0.382311 0.0545142 0.218385
14876 5 0.484625 0.0515761 0.215403
14943 1 0.412896 0.0844081 0.217215
14815 1 0.41592 0.0210991 0.217894
14885 1 0.485718 0.119031 0.236742
14866 1 0.491263 0.0552537 0.236714
17496 1 0.391175 0.120057 0.23929
14947 3 0.464429 0.120529 0.192791
14823 5 0.463238 0.0192509 0.243918
14887 2 0.440231 0.0830275 0.244658
14817 2 0.441791 0.030817 0.248336
14967 4 0.438033 0.181861 0.244007
25382 7 0.0234952 0.215995 0.204402
25299 5 0.0592919 0.130015 0.218712
25507 7 0.0622311 0.13634 0.190171
25348 7 0.0115994 0.134343 0.192773
25518 7 0.0766071 0.159525 0.192435
22742 1 0.114458 0.149428 0.234447
25376 5 0.0444628 0.179901 0.234563
25366 1 0.0136157 0.215185 0.232659
25512 9 0.00988404 0.171158 0.211383
25381 7 0.0373785 0.228824 0.211796
25371 4 0.0687112 0.211176 0.228493
25368 2 0.0689097 0.237253 0.227802
25343 6 0.0233153 0.22123 0.211911
25314 6 0.059917 0.152564 0.194645
25304 4 0.0659289 0.175134 0.217487
25303 3 0.0205818 0.15828 0.213775
25298 2 0.0677582 0.185627 0.229199
25297 8 0.0513087 0.153351 0.209743
22960 9 0.0925967 0.207754 0.21318
22718 6 0.110212 0.157782 0.212928
25345 7 0.0365247 0.1924 0.190637
25242 1 0.0178544 0.155222 0.233672
25305 5 0.0869447 0.178311 0.236923
22751 3 0.110286 0.206545 0.214004
22690 1 0.123609 0.210767 0.233275
22758 7 0.0975544 0.167706 0.211938
25416 7 0.0302631 0.244988 0.190665
22830 7 0.0943172 0.243646 0.199894
25373 5 0.0884418 0.246671 0.235763
14953 5 0.481834 0.18211 0.217831
25372 5 0.0464885 0.246014 0.232901
22757 7 0.125751 0.1662 0.212783
20139 2 0.234214 0.204929 0.249686
25229 5 0.0411425 0.00130275 0.239392
20170 7 0.193027 0.159285 0.189162
20203 6 0.204434 0.16633 0.184707
22743 1 0.184564 0.241684 0.243358
20143 5 0.214773 0.214661 0.242573
20206 7 0.17155 0.240571 0.19739
22755 6 0.152228 0.147821 0.191117
22721 7 0.155527 0.134773 0.196671
22722 7 0.150448 0.159207 0.196791
22750 5 0.184876 0.181753 0.223997
20165 6 0.20015 0.201622 0.199478
20207 7 0.193206 0.215389 0.1956
20208 7 0.202063 0.190535 0.192942
22744 2 0.162554 0.172685 0.218657
22745 8 0.133914 0.210566 0.203817
22747 5 0.148834 0.188581 0.210751
22748 4 0.163767 0.147448 0.215001
22752 4 0.148396 0.235462 0.208489
20190 1 0.208364 0.211565 0.220228
20067 1 0.216983 0.148742 0.223001
22749 5 0.145431 0.172887 0.22851
20197 5 0.238654 0.245328 0.218419
20202 5 0.240924 0.179013 0.217416
22753 5 0.184049 0.239678 0.220646
20147 5 0.212392 0.142201 0.246083
20166 6 0.182943 0.2423 0.191685
22689 1 0.178999 0.178519 0.246435
22824 5 0.145425 0.241842 0.227531
20243 7 0.229717 0.247821 0.16181
22746 2 0.159256 0.249204 0.217558
20195 5 0.255721 0.250678 0.200669
17581 7 0.325299 0.202286 0.189666
17570 2 0.364956 0.248133 0.207148
20075 5 0.255571 0.148406 0.2457
17590 4 0.334749 0.243562 0.242256
20144 5 0.256292 0.210659 0.243388
17517 2 0.336033 0.21804 0.242876
17523 5 0.360551 0.210449 0.240604
20137 1 0.28115 0.242212 0.239359
20120 1 0.289291 0.179482 0.243302
17569 2 0.364245 0.172034 0.207572
20368 9 0.276075 0.185699 0.196373
20198 5 0.281412 0.246831 0.216571
17567 1 0.312445 0.150452 0.221299
17650 5 0.341161 0.24141 0.211626
17515 1 0.314803 0.211202 0.214687
20196 4 0.264384 0.210993 0.21132
20367 9 0.268247 0.140249 0.200724
17573 5 0.340569 0.178185 0.212147
17545 6 0.310783 0.209552 0.192014
20122 2 0.264681 0.185121 0.213033
20127 3 0.268791 0.174581 0.201354
20192 2 0.259665 0.237298 0.211536
20128 5 0.2835 0.177052 0.221005
17571 3 0.370505 0.181568 0.195708
17595 5 0.319149 0.211585 0.233868
17572 4 0.367649 0.145266 0.206696
17520 5 0.31716 0.1537 0.243192
17521 5 0.358922 0.15225 0.243324
17575 3 0.369491 0.240716 0.194602
17815 9 0.369397 0.198025 0.195821
15025 5 0.441121 0.181635 0.211677
14952 3 0.472229 0.174913 0.197657
14896 5 0.462383 0.146833 0.238173
14969 5 0.460521 0.216629 0.239848
15261 9 0.451766 0.13156 0.192484
15021 5 0.43892 0.248231 0.211767
15262 9 0.481303 0.184115 0.192797
14964 2 0.43817 0.207847 0.244612
14968 5 0.418029 0.214366 0.237048
14957 7 0.410594 0.158319 0.185143
14958 7 0.41889 0.133358 0.187006
15030 7 0.403395 0.195982 0.191081
14886 1 0.415815 0.147841 0.212594
15022 5 0.480074 0.248495 0.215841
14946 2 0.465588 0.188534 0.208586
14962 1 0.484379 0.247477 0.236799
14944 1 0.489815 0.183875 0.237627
17576 5 0.3841 0.238519 0.21449
17514 1 0.386482 0.180642 0.240021
15015 1 0.409182 0.210623 0.21675
14919 6 0.416839 0.147071 0.190999
15020 4 0.465745 0.214236 0.20698
17568 1 0.389209 0.246823 0.23784
14992 6 0.406107 0.209935 0.194944
17574 5 0.381571 0.179617 0.216582
20205 7 0.196607 0.247022 0.195386
22698 5 0.157473 0.20913 0.249887
25178 3 0.0169623 0.0181731 0.277601
25245 3 0.0352048 0.0987992 0.276809
25256 7 0.0671864 0.0495312 0.276798
25257 7 0.0852312 0.0443382 0.284617
25288 6 0.0821873 0.0547912 0.278824
25497 9 0.0501766 0.10524 0.276449
25251 5 0.0144217 0.0278597 0.256957
25248 5 0.0538529 0.0840693 0.259514
25247 5 0.0127708 0.0938237 0.259514
25246 4 0.0284075 0.0572704 0.269184
25243 2 0.0310204 0.0827291 0.266387
25241 1 0.0828681 0.116965 0.255958
25224 1 0.0840099 0.0556007 0.256864
25179 5 0.0538394 0.0247167 0.265239
25173 2 0.0292088 0.0312949 0.267406
25289 6 0.088205 0.110559 0.276977
25255 7 0.0862565 0.0951464 0.279057
22624 5 0.115462 0.0283147 0.257992
25496 9 0.0153465 0.0286469 0.283824
22699 5 0.114011 0.080492 0.25424
25515 7 0.0226499 0.107532 0.294172
25254 7 0.0999687 0.114058 0.282252
22268 9 0.120485 0.0951971 0.307629
25313 6 0.0099226 0.119734 0.297606
24655 7 0.0792435 0.0632817 0.304719
22943 9 0.147921 0.0244409 0.282198
19999 4 0.232128 0.0181027 0.263337
20070 3 0.239149 0.0955498 0.265162
20391 9 0.224629 0.0973157 0.268047
22622 3 0.143719 0.0352569 0.275968
22626 3 0.143335 0.0823453 0.271006
22632 7 0.189309 0.0685255 0.299049
22666 6 0.185024 0.0587973 0.305284
22944 9 0.14161 0.0671893 0.272969
19993 2 0.236299 0.0329949 0.252887
20068 2 0.239166 0.0847022 0.253251
20071 4 0.242267 0.0587545 0.255523
22620 2 0.13758 0.0222386 0.265222
22621 2 0.13718 0.087895 0.258877
22625 5 0.15808 0.0246225 0.257567
22694 4 0.136762 0.1149 0.257515
22736 6 0.188185 0.10609 0.269292
22633 7 0.167697 0.0231856 0.294868
22665 6 0.15736 0.0107476 0.29359
22634 7 0.146383 0.0154477 0.299204
22631 7 0.197783 0.0483994 0.306038
19468 3 0.23709 0.0950445 0.301995
19715 9 0.24164 0.110702 0.301053
14262 7 0.49236 0.135128 0.467848
22704 7 0.173268 0.0994759 0.270073
19714 9 0.228336 0.00736914 0.307567
19398 3 0.222323 0.0219572 0.308024
22020 3 0.132611 0.0362287 0.31198
22267 9 0.133886 0.0529377 0.312214
14258 5 0.464537 0.148005 0.447173
22705 7 0.185477 0.122297 0.271469
17440 8 0.321261 0.0577072 0.266129
17442 5 0.327635 0.0350109 0.256917
17446 3 0.290928 0.0552337 0.26259
17447 4 0.330063 0.0795829 0.256767
17857 9 0.277257 0.064126 0.266594
17519 4 0.334619 0.119733 0.25026
17513 6 0.336714 0.059077 0.280256
17863 7 0.335566 0.0733928 0.285306
17864 7 0.337961 0.045257 0.2859
17162 9 0.324786 0.0967116 0.298506
19365 6 0.284397 0.0694902 0.299613
19403 7 0.289044 0.079729 0.293846
16842 3 0.334181 0.0396106 0.301252
17161 9 0.335289 0.0557018 0.302257
16846 3 0.337973 0.0882313 0.301653
20005 7 0.285901 0.0177886 0.267331
20004 7 0.308995 0.0103478 0.261372
19404 7 0.269118 0.076674 0.301911
20040 6 0.293995 0.00505103 0.264114
20113 6 0.295228 0.123907 0.263262
16843 4 0.337303 0.00132493 0.311392
19439 6 0.296531 0.119083 0.298054
19479 7 0.310149 0.126831 0.295745
14822 3 0.438026 0.0253941 0.26117
14827 7 0.491836 0.063437 0.264146
14828 7 0.47763 0.0436437 0.261141
14860 6 0.492469 0.0509818 0.258923
14888 8 0.424943 0.123887 0.26159
14890 5 0.4329 0.100115 0.253435
14903 7 0.462038 0.0999609 0.272832
14935 6 0.474698 0.0902284 0.274199
17454 7 0.443735 0.0413228 0.278209
17487 6 0.442684 0.0523564 0.283989
17455 7 0.44887 0.065815 0.280229
15312 7 0.43802 0.110185 0.281463
14609 9 0.438608 0.0800162 0.292365
14608 9 0.438306 0.034449 0.294822
14302 7 0.475501 0.0627448 0.292871
14260 6 0.491868 0.0656711 0.291866
14290 3 0.438053 0.0932434 0.296779
14301 7 0.491829 0.0732888 0.285053
14218 3 0.436909 0.0217853 0.301187
16851 7 0.415129 0.11911 0.295389
14902 7 0.48792 0.10052 0.273359
14291 4 0.447669 0.0594343 0.308754
14288 2 0.443924 0.0855548 0.309262
14894 3 0.393558 0.123584 0.259552
15305 9 0.380989 0.122434 0.265653
14213 2 0.444723 0.034517 0.312044
17412 6 0.38637 0.00677435 0.264286
16813 6 0.401133 0.127951 0.295711
17380 7 0.39833 0.00535102 0.270206
15286 9 0.433079 0.0105808 0.261603
1395 7 -0.00395932 0.193197 0.311823
22021 4 0.132609 0.000421029 0.323874
25498 9 0.0248139 0.128328 0.271756
22696 5 0.155653 0.149644 0.251607
25249 3 0.0178617 0.143733 0.271176
25319 3 0.0260904 0.218452 0.275481
25330 7 0.0742868 0.200348 0.275668
25331 7 0.0839446 0.18937 0.286643
25360 6 0.0888008 0.192921 0.278702
25499 9 0.0260784 0.234351 0.274707
25322 5 0.0595744 0.216465 0.262709
25321 5 0.0170485 0.21617 0.254637
25320 4 0.0351247 0.183123 0.26444
25317 2 0.0343942 0.208657 0.263588
25315 1 0.0855992 0.244393 0.258365
25295 1 0.0920798 0.1787 0.258623
25250 5 0.0583326 0.150411 0.260929
25244 2 0.0325783 0.15695 0.262049
22695 5 0.11701 0.151741 0.258105
22773 5 0.116794 0.209921 0.256258
1996 7 0.0377251 0.200549 0.286919
1997 7 0.0321886 0.203555 0.299064
2031 6 0.0434972 0.197755 0.294031
22319 9 0.0731482 0.192568 0.304433
24725 7 0.0603517 0.238663 0.307733
22094 3 0.0866987 0.185011 0.308022
24821 9 0.0127335 0.230583 0.312739
22088 8 0.116957 0.183895 0.30314
24727 7 0.105283 0.242245 0.282156
24688 6 0.0891645 0.243331 0.27913
14324 1 0.49037 0.244413 0.453451
24689 6 0.0695908 0.250819 0.30529
25325 5 0.0160569 0.153095 0.25199
22963 7 0.124418 0.17901 0.281398
25329 7 0.135991 0.230351 0.294826
22761 6 0.132258 0.177208 0.288875
22030 7 0.188135 0.115406 0.294715
21992 6 0.192374 0.119596 0.302101
20392 9 0.237767 0.131057 0.265099
22029 7 0.208794 0.12251 0.301352
22945 9 0.163601 0.154944 0.271596
22952 7 0.137821 0.16006 0.287982
20074 3 0.23461 0.147582 0.263783
20141 3 0.231472 0.215652 0.261617
20393 9 0.215353 0.221055 0.26245
22693 3 0.153372 0.143118 0.27198
22697 3 0.152175 0.213144 0.270274
22702 7 0.200998 0.178202 0.272553
22703 7 0.177176 0.191962 0.26941
22737 6 0.187834 0.17942 0.266995
22946 9 0.149479 0.222177 0.276594
22691 2 0.139844 0.140095 0.260534
22692 2 0.141453 0.218827 0.258764
22768 4 0.139164 0.245282 0.256736
22062 6 0.227013 0.182709 0.278881
22102 7 0.232969 0.171598 0.27359
22103 7 0.228271 0.196391 0.27436
22100 7 0.19741 0.179101 0.29686
19716 9 0.230133 0.152839 0.295044
22063 6 0.192114 0.185993 0.303495
19472 3 0.237585 0.143781 0.30081
22101 7 0.193964 0.201622 0.301515
19538 5 0.233702 0.225342 0.303413
20400 7 0.234022 0.243964 0.272389
25361 6 0.142506 0.241219 0.289668
12115 9 0.47012 0.176847 0.476208
22095 4 0.128536 0.207953 0.309627
22808 6 0.193351 0.248748 0.264186
19536 8 0.225004 0.24577 0.293845
19542 3 0.194332 0.240601 0.297909
20069 2 0.232868 0.153334 0.251174
22032 7 0.19396 0.00528863 0.307377
19767 9 0.180056 0.24283 0.292841
20081 7 0.311298 0.119161 0.263613
17453 7 0.376244 0.132277 0.282992
20082 7 0.297603 0.140054 0.265533
19480 7 0.285089 0.125704 0.293055
17488 6 0.361969 0.136692 0.279781
17452 7 0.353741 0.142441 0.286397