ITEM: TIMESTEP
456000
ITEM: NUMBER OF ATOMS
25520
ITEM: BOX BOUNDS pp pp pp
-3.8580753559638170e-01 6.0084351125595489e+01
-1.9414179144939683e+00 5.9111703188494168e+01
-1.2637932922348872e+01 1.1191366532835637e+02
ITEM: ATOMS id type xs ys zs
25182 6 0.0983057 0.0301083 0.15245
25252 6 0.106606 0.0780277 0.151698
25214 3 0.0426704 0.0459431 0.157394
25287 5 0.0322578 0.0530776 0.176451
25283 5 0.072996 0.11554 0.171074
25282 5 0.0308519 0.113242 0.177221
25281 4 0.0460876 0.0856585 0.165053
25277 2 0.0490566 0.109386 0.168983
25215 5 0.0742139 0.0544801 0.171194
25209 2 0.0495203 0.058656 0.167937
25188 1 0.105542 0.0836672 0.17187
25458 9 0.0423181 0.0562771 0.151536
25206 1 0.0986011 0.0202291 0.172626
2433 1 0.0057984 0.0186628 0.176576
25293 7 0.112491 0.0925527 0.149299
25292 7 0.121172 0.0700327 0.152841
25219 7 0.0888527 0.0435831 0.15172
25220 7 0.111281 0.0347266 0.148818
22735 5 0.131833 0.116458 0.171982
22660 5 0.134601 0.0482658 0.174444
22905 9 0.15994 0.0556785 0.150966
22662 3 0.150709 0.114146 0.153758
22658 3 0.147779 0.0516187 0.154959
22656 2 0.154235 0.0443296 0.166611
20112 5 0.231412 0.0538804 0.172412
22663 5 0.172895 0.118225 0.170256
22654 1 0.197513 0.0892195 0.171129
22661 5 0.176235 0.0553412 0.16878
22659 4 0.158354 0.0196842 0.166027
22563 1 0.205771 0.0215245 0.172857
22629 6 0.21711 0.0217714 0.153614
22630 6 0.190178 0.0928823 0.150437
22667 7 0.192462 0.0966974 0.142709
22668 7 0.179457 0.104139 0.152333
20108 5 0.232047 0.120987 0.170856
22670 7 0.225442 0.0348352 0.153624
22906 9 0.144805 0.124308 0.148198
22669 7 0.208742 0.0235325 0.146704
20106 3 0.246614 0.115012 0.151805
20036 3 0.245159 0.0579731 0.152638
20352 9 0.241753 0.0716819 0.148954
20353 9 0.23297 0.122358 0.150435
20107 4 0.251673 0.0872408 0.167277
20104 2 0.251008 0.112142 0.164293
20031 2 0.24987 0.0625243 0.164984
20118 7 0.318756 0.0956625 0.147746
20117 7 0.300481 0.0886004 0.140238
20077 6 0.305249 0.0869467 0.147733
17480 3 0.345338 0.0553771 0.155231
17799 9 0.344026 0.0707902 0.155611
17478 2 0.352157 0.0465883 0.166776
20109 5 0.273907 0.121122 0.167163
17482 5 0.334754 0.0553017 0.174352
20037 5 0.27279 0.0541246 0.168196
20011 1 0.301873 0.0855808 0.169138
20028 1 0.298429 0.0232987 0.1709
17481 4 0.349524 0.0214122 0.168901
17560 5 0.33092 0.118151 0.169966
17484 3 0.345819 0.112886 0.150994
20003 6 0.311161 0.0247579 0.151538
20041 7 0.320776 0.0378832 0.151469
20042 7 0.303145 0.0252528 0.144821
17483 5 0.375113 0.0551779 0.169438
2103 7 0.00290996 0.186021 0.154844
17485 5 0.373456 0.120225 0.16579
17479 2 0.349537 0.1234 0.162183
17800 9 0.349433 0.1231 0.145415
17490 7 0.380935 0.100685 0.152085
17489 7 0.390865 0.0877463 0.142547
17451 6 0.394888 0.0939787 0.149936
14856 3 0.447889 0.0477912 0.155107
15246 9 0.446492 0.0321078 0.156899
14929 4 0.447257 0.0857492 0.164713
14926 2 0.451872 0.109906 0.166551
14851 2 0.450996 0.0603795 0.16602
14931 5 0.476236 0.114375 0.170198
14857 5 0.475061 0.0550055 0.170871
17476 1 0.398217 0.086354 0.170486
14934 5 0.435753 0.0514844 0.175194
14930 5 0.434113 0.116803 0.17487
17384 1 0.40376 0.0234049 0.174482
17450 6 0.405611 0.0240691 0.153481
17492 7 0.403238 0.0262937 0.145741
14928 3 0.446032 0.124383 0.155975
15247 9 0.44216 0.113077 0.150679
17491 7 0.420243 0.0178139 0.152408
2104 7 0.0187579 0.206253 0.157787
25280 5 0.0423565 0.127071 0.161062
25284 3 0.00259828 0.152833 0.157264
25290 7 0.119354 0.153791 0.153163
2033 7 0.0456052 0.1433 0.134867
25253 6 0.104188 0.150765 0.152959
2032 7 0.0523349 0.16895 0.137687
1995 6 0.0401294 0.156063 0.139507
25275 1 0.0971816 0.147006 0.173137
25278 8 0.0328942 0.15179 0.154425
22957 9 0.0950793 0.237648 0.157746
22732 3 0.102809 0.222155 0.156653
25285 4 0.0426818 0.174253 0.162504
25359 5 0.0364464 0.180863 0.182335
25356 5 0.0747687 0.244645 0.175923
25354 4 0.0495503 0.212321 0.169916
25351 2 0.0519161 0.237812 0.171881
25286 5 0.074921 0.179214 0.173849
25279 2 0.0501616 0.187545 0.172369
25259 1 0.104599 0.212145 0.176597
25355 5 0.0337721 0.242626 0.180043
25394 6 0.079229 0.186887 0.146446
25291 7 0.0980392 0.162537 0.148496
25432 7 0.0691422 0.183177 0.153139
25433 7 0.0871069 0.200111 0.148954
1933 1 0.00404981 0.147935 0.17687
25459 9 0.05161 0.240207 0.155054
25353 3 0.0474913 0.249522 0.161185
2065 6 0.0033534 0.201924 0.157836
22657 2 0.150595 0.125891 0.164904
1963 7 0.145899 0.239959 0.136398
22741 7 0.199311 0.150703 0.143081
1962 7 0.14899 0.212939 0.134438
22740 7 0.220021 0.160757 0.149734
1927 6 0.138718 0.224177 0.138325
22726 8 0.132329 0.218747 0.153597
22730 5 0.132557 0.177983 0.176738
22700 6 0.206263 0.152559 0.150034
22636 1 0.204823 0.150469 0.171131
22729 4 0.146472 0.151435 0.163467
22733 4 0.140614 0.237981 0.163022
20188 7 0.206498 0.198548 0.150439
20189 7 0.189544 0.188352 0.15793
20148 6 0.195942 0.203014 0.155635
22728 5 0.140083 0.193089 0.159768
22725 2 0.147922 0.175212 0.167161
20178 5 0.234481 0.239138 0.178638
20183 5 0.234978 0.180688 0.175142
22723 1 0.196651 0.208991 0.175454
22731 5 0.172446 0.179145 0.169678
22734 5 0.173371 0.241859 0.174266
22807 5 0.135916 0.244304 0.181583
20110 3 0.241955 0.180881 0.154007
20177 4 0.246072 0.213234 0.165908
20354 9 0.254965 0.174058 0.150311
20105 2 0.249898 0.187489 0.165608
20173 2 0.251336 0.236982 0.169359
17555 4 0.347004 0.148824 0.159697
20102 1 0.298275 0.149027 0.170281
17554 3 0.344179 0.189237 0.152846
17801 9 0.345204 0.204638 0.154805
17558 3 0.339614 0.233214 0.158887
17552 2 0.350319 0.173735 0.16253
17556 5 0.332599 0.17824 0.171176
20111 5 0.273295 0.180796 0.168155
20084 1 0.303164 0.209116 0.174757
20179 5 0.274885 0.240236 0.172741
17631 5 0.335902 0.23984 0.178911
17802 9 0.340735 0.241928 0.15247
17553 2 0.349584 0.245993 0.168759
17557 5 0.374347 0.178795 0.166525
17559 5 0.374188 0.240659 0.170026
17563 7 0.394368 0.22437 0.150552
17564 7 0.385686 0.202714 0.15266
17565 7 0.4039 0.163202 0.145103
17566 7 0.422742 0.153622 0.150889
14938 7 0.446195 0.196366 0.144365
14937 7 0.429479 0.212825 0.141319
17525 6 0.406637 0.152448 0.150993
17459 1 0.402427 0.147028 0.170997
17526 6 0.399625 0.209555 0.150795
14899 6 0.443245 0.207439 0.139087
15248 9 0.453086 0.155581 0.156348
15002 3 0.450245 0.24313 0.153223
14932 3 0.446615 0.170975 0.155993
15000 2 0.453862 0.232714 0.164532
15003 4 0.449818 0.207902 0.163425
14927 2 0.451527 0.183711 0.166538
15005 5 0.477345 0.240004 0.168594
14933 5 0.47524 0.17796 0.170378
15004 5 0.435646 0.23837 0.173086
17550 1 0.398945 0.20787 0.171917
15008 5 0.435511 0.178759 0.175767
15249 9 0.450258 0.232286 0.147648
22653 7 0.112255 0.00356022 0.218153
25237 7 0.0266152 0.0632137 0.239201
25471 9 0.0714394 0.0164772 0.243889
25198 5 0.0953987 0.0815405 0.191244
25195 5 0.0944342 0.0216009 0.193618
25268 5 0.0551954 0.0810503 0.195425
25258 1 0.0241868 0.114488 0.197232
25207 1 0.0311537 0.0523832 0.196015
25191 2 0.077973 0.08904 0.199323
25263 4 0.0807435 0.113538 0.202099
25197 4 0.0767847 0.0736395 0.209004
25192 5 0.0756591 0.0289593 0.21095
25196 3 0.0356871 0.0517354 0.215327
25190 8 0.0657081 0.0526766 0.217798
25510 9 0.0240882 0.0444299 0.22005
25517 7 0.0713934 0.0637095 0.238153
25240 6 0.0798149 0.0564995 0.231776
22685 7 0.0833399 0.100727 0.218259
25506 7 0.088204 0.0434929 0.234964
22649 6 0.0883084 0.10507 0.225732
25194 5 0.0552004 0.0139641 0.19722
25189 2 0.0783375 0.0125572 0.201831
25201 6 0.0139128 0.0572759 0.24315
22684 7 0.0859111 0.0912773 0.229769
25271 7 0.0320431 0.114554 0.224665
25308 6 0.023892 0.113644 0.217757
25472 9 0.0582946 0.100458 0.244488
25309 7 0.0642392 0.118554 0.230109
25270 6 0.0516306 0.120363 0.235536
25203 7 0.0846009 0.0102144 0.222743
25269 6 0.00203207 0.115253 0.246126
25272 7 0.0106723 0.103486 0.219444
22759 7 0.109932 0.115434 0.242012
25311 7 0.00688871 0.117232 0.238623
22717 6 0.111693 0.120385 0.2491
22958 9 0.12417 0.111217 0.218506
25227 3 0.0635167 0.0271245 0.248721
22635 1 0.123213 0.0493596 0.19341
25310 7 0.057183 0.132197 0.24042
17850 7 0.381965 0.244708 0.235782
22760 7 0.125421 0.127688 0.247948
22687 7 0.136236 0.0239054 0.236486
22683 6 0.1305 0.0543946 0.213797
22686 7 0.125496 0.0323002 0.246816
22650 7 0.132921 0.0644835 0.219439
20062 7 0.135994 0.0695343 0.238261
22651 7 0.141613 0.0432987 0.2157
22648 6 0.128994 0.0367124 0.239479
17509 7 0.245702 0.0159711 0.238883
20023 6 0.147086 0.0789342 0.23437
20061 7 0.15915 0.06939 0.232834
22643 5 0.194372 0.0868194 0.189832
22572 5 0.196111 0.0222568 0.19313
20083 1 0.224851 0.117327 0.192381
20134 7 0.231158 0.0616691 0.244719
22919 9 0.154654 0.0885338 0.246633
22655 1 0.128853 0.115064 0.193501
20029 1 0.230091 0.0539546 0.19372
22642 5 0.152275 0.0812884 0.192922
20063 7 0.185448 0.0478485 0.226323
22637 2 0.17481 0.0777404 0.197192
22641 4 0.180754 0.053863 0.199863
22565 2 0.17907 0.028386 0.201055
22640 5 0.174415 0.0916514 0.207115
20060 6 0.230657 0.0515549 0.214447
20022 6 0.187649 0.0625656 0.228426
20064 7 0.185573 0.0695134 0.22155
22647 5 0.156441 0.02216 0.198018
20096 6 0.217165 0.0573258 0.246303
22571 3 0.186153 0.0228385 0.213478
22638 8 0.166816 0.11346 0.215201
22918 9 0.168009 0.0234986 0.246079
22644 3 0.136028 0.115346 0.212751
22688 6 0.17482 0.118456 0.229971
20024 7 0.219146 0.0439798 0.21821
20099 7 0.237634 0.114509 0.217824
22931 9 0.197802 0.011635 0.212926
17471 6 0.233311 0.0120777 0.233955
20135 7 0.208214 0.0633456 0.240704
22965 7 0.175096 0.104829 0.235485
20100 7 0.234181 0.123417 0.238223
20130 6 0.249407 0.117703 0.236034
20131 6 0.228976 0.107849 0.212331
20098 7 0.236884 0.0929724 0.212759
17510 7 0.221518 0.0241868 0.234649
20132 7 0.197386 0.111801 0.247445
22577 7 0.166952 0.0126979 0.223878
22612 6 0.160476 0.00214053 0.228995
20025 7 0.241999 0.0405465 0.215136
20101 7 0.250416 0.104984 0.240054
25236 7 0.00233499 0.0562669 0.237716
17474 7 0.334131 0.0120552 0.216774
20020 5 0.295109 0.0851198 0.187531
20017 5 0.2951 0.0218972 0.191202
20016 5 0.254969 0.0197737 0.194709
17477 1 0.33054 0.114406 0.190791
17458 1 0.323688 0.0534672 0.192356
20095 5 0.254259 0.0845631 0.194913
17464 5 0.354039 0.0877645 0.193427
20013 2 0.278746 0.0890845 0.196829
20379 9 0.288103 0.0799735 0.21248
20089 4 0.281936 0.113669 0.200804
20019 3 0.284655 0.0729214 0.205982
20378 9 0.282507 0.0419492 0.21099
17466 6 0.328006 0.0509806 0.212404
17493 7 0.34397 0.0498104 0.209783
17494 7 0.329763 0.0601341 0.219076
14960 7 0.312503 0.0879845 0.230001
14918 6 0.32489 0.0778504 0.230649
14959 7 0.336415 0.0839107 0.235202
17469 5 0.352836 0.0195098 0.197363
20014 3 0.275464 0.0274072 0.21106
20012 2 0.277608 0.0169873 0.199628
17503 6 0.30864 0.0471906 0.246024
17499 3 0.359008 0.0897391 0.245125
17548 7 0.274553 0.112129 0.228196
17578 6 0.287452 0.109297 0.223671
17457 7 0.314483 0.058903 0.241611
17544 6 0.314976 0.118001 0.244885
14847 7 0.365264 0.0638912 0.231694
17472 7 0.318321 0.11268 0.216137
17508 6 0.329561 0.113029 0.210845
17511 7 0.282297 0.00722797 0.222601
17549 7 0.28504 0.116419 0.216437
17583 7 0.30758 0.117589 0.237993
20051 3 0.264989 0.0284457 0.247525
17860 7 0.370659 0.00697876 0.225883
20365 9 0.280376 0.0346091 0.24696
17813 9 0.372101 0.0998454 0.245258
17473 7 0.342822 0.119367 0.214051
14878 6 0.378189 0.060601 0.227906
14846 7 0.37889 0.0733704 0.223174
17582 7 0.329057 0.113846 0.241025
20366 9 0.278487 0.0934273 0.246864
22652 7 0.138082 0.0023767 0.220325
17456 7 0.322663 0.0395464 0.248736
14848 1 0.498701 0.0212088 0.17334
17463 4 0.373053 0.054048 0.198729
15272 9 0.482313 0.0133882 0.219076
14840 5 0.497279 0.0830905 0.196017
17475 7 0.310931 0.00418538 0.21676
17460 2 0.37582 0.0790556 0.19758
17825 9 0.380738 0.0385182 0.216711
17386 2 0.374951 0.0295814 0.200434
17462 3 0.377911 0.0895722 0.208837
17826 9 0.37313 0.104296 0.209287
17465 5 0.395583 0.0824469 0.190017
17391 3 0.378686 0.025535 0.212471
14906 1 0.425656 0.114451 0.194354
17392 5 0.393499 0.0218909 0.193143
14849 1 0.430519 0.0534052 0.195249
14917 5 0.455249 0.0848469 0.199062
14837 5 0.454122 0.025714 0.199706
14911 4 0.481864 0.116825 0.201681
14834 2 0.478364 0.0918013 0.202272
14839 3 0.482952 0.0832041 0.214693
14955 6 0.41613 0.0634625 0.213519
15273 9 0.486337 0.0963651 0.21847
14922 7 0.403026 0.07194 0.216426
14923 7 0.425263 0.0636917 0.220003
15308 7 0.464834 0.0627511 0.223593
14884 6 0.454337 0.0501732 0.227089
15297 7 0.461584 0.0352987 0.223969
15303 9 0.402479 0.0625787 0.241111
14868 8 0.44527 0.0541953 0.241598
14835 3 0.483389 0.0255435 0.214157
14874 3 0.415488 0.0587117 0.245248
14833 2 0.477758 0.0175603 0.202419
14914 6 0.423015 0.116656 0.21418
14951 6 0.408213 0.130348 0.244492
12366 6 0.484613 0.121007 0.229679
14942 7 0.407275 0.1211 0.21497
14838 5 0.495786 0.0254957 0.194764
14844 7 0.40796 0.0104334 0.214342
12407 7 0.473421 0.111366 0.231898
14870 5 0.45448 0.0326202 0.249703
25484 9 0.0860334 0.131393 0.218365
25348 7 0.00246209 0.179082 0.216851
25267 5 0.0968435 0.209438 0.197205
25265 5 0.0952325 0.145818 0.193447
25347 7 0.0225581 0.177701 0.223534
25512 9 0.0023771 0.18094 0.241735
25303 3 0.0155775 0.178565 0.246722
25260 2 0.0793689 0.138789 0.202194
25264 5 0.0554252 0.144937 0.199882
25332 1 0.0275621 0.240994 0.199988
25276 1 0.0324235 0.176079 0.19978
25342 5 0.0560458 0.207475 0.202457
25337 4 0.0777463 0.24173 0.205878
25261 2 0.0783935 0.216326 0.204987
25266 3 0.0838054 0.207836 0.216405
25262 3 0.0849709 0.145365 0.214379
25485 9 0.0970526 0.198651 0.216623
22720 7 0.112632 0.164757 0.217112
25377 6 0.0180965 0.179876 0.215884
25507 7 0.0636769 0.192371 0.226466
25518 7 0.0669594 0.165998 0.225325
25314 6 0.0570774 0.177284 0.229442
25297 8 0.0455731 0.175719 0.243959
22718 6 0.106791 0.179574 0.248381
22830 7 0.0676464 0.228882 0.227077
22791 6 0.0606766 0.239856 0.231702
22829 7 0.0546921 0.231879 0.237531
25378 6 0.0219766 0.237218 0.220822
22758 7 0.0910568 0.17661 0.245148
22751 3 0.11882 0.24218 0.246691
22757 7 0.116383 0.177051 0.242063
22795 7 0.122376 0.224222 0.220814
25345 7 0.035773 0.238354 0.225423
22825 6 0.12328 0.240274 0.218302
22960 9 0.109969 0.248781 0.240641
15275 9 0.491865 0.19413 0.212192
20133 7 0.195222 0.134891 0.244998
22756 6 0.120623 0.178716 0.217508
22954 7 0.170417 0.131495 0.234516
22706 1 0.125529 0.178374 0.196637
12257 7 0.488721 0.00113269 0.242253
22646 5 0.197329 0.14629 0.191619
22719 7 0.13117 0.17537 0.223387
22713 5 0.195601 0.211871 0.194982
20103 1 0.230547 0.177517 0.195009
22716 5 0.155679 0.146745 0.193598
20154 1 0.227345 0.241236 0.196601
22724 1 0.13331 0.23962 0.198124
22722 7 0.151447 0.192126 0.241767
22645 4 0.174848 0.137199 0.207835
22712 5 0.156646 0.209941 0.201193
22639 2 0.178017 0.152396 0.198616
22708 2 0.179955 0.201373 0.203001
22711 4 0.17855 0.176531 0.201028
22710 3 0.189531 0.205962 0.214798
22932 9 0.184464 0.19414 0.219591
20204 6 0.218244 0.242417 0.217593
20092 3 0.23575 0.17285 0.214209
22721 7 0.147998 0.167129 0.240338
20406 9 0.223795 0.167751 0.219846
22966 7 0.172185 0.218586 0.228886
22745 8 0.150352 0.237729 0.244451
20166 6 0.184686 0.169238 0.224543
20206 7 0.169193 0.170353 0.22719
22755 6 0.147462 0.180794 0.236317
20205 7 0.182216 0.160603 0.21794
22762 6 0.170819 0.234177 0.232725
20169 7 0.200328 0.174408 0.239784
20203 6 0.202282 0.172605 0.247302
20167 7 0.205948 0.23154 0.216413
20165 6 0.210596 0.23957 0.246753
20207 7 0.201096 0.233203 0.240899
20208 7 0.22486 0.24126 0.243072
25231 3 0.0651332 0.0881985 0.248222
17504 3 0.364183 0.143557 0.247934
17618 7 0.273838 0.24674 0.226851
17617 7 0.280665 0.239952 0.237876
20367 9 0.262093 0.137349 0.24487
20368 9 0.265119 0.217262 0.242597
20091 5 0.296787 0.146315 0.18994
20094 5 0.298179 0.208317 0.19378
17531 1 0.327293 0.175167 0.191357
20090 5 0.256026 0.141493 0.193964
17551 1 0.331563 0.240816 0.197356
17538 5 0.355558 0.196441 0.192594
20164 5 0.2564 0.211068 0.196715
17543 5 0.35714 0.144006 0.193466
20085 2 0.279708 0.139532 0.198661
20086 8 0.266399 0.17418 0.217006
20087 2 0.279479 0.21533 0.201295
20159 4 0.280771 0.24018 0.20448
20088 5 0.277368 0.154269 0.207759
20093 4 0.275747 0.196988 0.209334
17547 7 0.309273 0.17958 0.208201
17540 3 0.337402 0.240483 0.216334
17579 6 0.321096 0.170652 0.211426
17546 7 0.31365 0.163027 0.216689
20136 6 0.284023 0.174833 0.230536
20413 7 0.282369 0.189912 0.234616
20402 7 0.279978 0.162176 0.235793
17534 8 0.369176 0.23686 0.21638
14996 7 0.351341 0.165733 0.221293
17651 6 0.268493 0.238831 0.232975
20123 3 0.267213 0.149585 0.24946
17814 9 0.36499 0.153239 0.241788
15026 6 0.362883 0.164087 0.226203
17536 5 0.373958 0.215857 0.206697
17571 3 0.366558 0.222985 0.249345
14957 7 0.407822 0.213902 0.240786
14991 5 0.458065 0.209408 0.195728
15274 9 0.479469 0.136343 0.218812
14908 2 0.477703 0.141473 0.202081
12408 7 0.483014 0.131772 0.235021
14904 7 0.414861 0.142781 0.240692
17539 5 0.394078 0.206917 0.189417
14958 7 0.388578 0.199841 0.246593
12329 7 0.435737 0.173891 0.229696
14997 7 0.374051 0.173056 0.223028
14956 6 0.437072 0.188154 0.215418
14979 1 0.427171 0.239344 0.19263
14925 1 0.43207 0.178827 0.194932
14912 5 0.454681 0.147825 0.198139
14994 7 0.415583 0.232354 0.21901
14941 7 0.429991 0.119081 0.22137
14905 7 0.392433 0.133474 0.243051
14913 5 0.49552 0.148762 0.193998
12328 7 0.44551 0.154601 0.224076
14920 7 0.432433 0.202123 0.219314
20127 3 0.270201 0.208312 0.248759
17861 7 0.383078 0.217129 0.233566
14919 6 0.404709 0.199347 0.243862
15262 9 0.462805 0.223303 0.240456
17827 9 0.374031 0.144954 0.215743
9777 7 0.477267 0.248876 0.229096
14909 2 0.479926 0.216229 0.20087
14915 3 0.482769 0.206189 0.212635
15027 6 0.427047 0.234419 0.213513
17467 3 0.378339 0.135369 0.20961
14952 3 0.466634 0.2122 0.245916
14916 5 0.499132 0.206819 0.194495
14947 3 0.469317 0.152062 0.246549
17468 5 0.396801 0.144944 0.191293
14995 7 0.438523 0.241544 0.217761
9739 6 0.465686 0.238874 0.228217
17533 2 0.377984 0.199197 0.198043
14910 3 0.478557 0.150364 0.214089
17537 4 0.383258 0.175112 0.201424
14985 4 0.484228 0.241085 0.200768
17461 2 0.378647 0.149436 0.199146
12291 6 0.438652 0.1584 0.23056
17584 6 0.385603 0.2326 0.229364
15261 9 0.456354 0.155076 0.242124
14921 7 0.453006 0.188578 0.21546
9776 7 0.470094 0.228426 0.222797
12352 7 0.491144 0.173037 0.241327
12353 7 0.493053 0.198049 0.241947
17854 9 0.328527 0.242866 0.223499
25205 7 0.0112252 0.00424875 0.21873
20097 6 0.205548 0.12384 0.248326
22796 7 0.107786 0.245281 0.219061
22955 7 0.172466 0.246424 0.226742
25346 7 0.0116609 0.245852 0.224792
22682 6 0.127022 0.00246737 0.214384
15030 7 0.424289 0.247159 0.238432
25457 9 0.0428105 0.00445038 0.156588
25178 3 0.0163381 0.0483196 0.302171
25245 3 0.0258799 0.113181 0.30631
25251 5 0.0137428 0.0547962 0.282154
25246 4 0.0288464 0.0836649 0.294649
25243 2 0.0323482 0.108642 0.293976
25224 1 0.0832687 0.0849181 0.288758
25179 5 0.0531907 0.0524185 0.290125
25173 2 0.0287746 0.059135 0.292103
25170 1 0.0792464 0.0243307 0.289153
25232 5 0.0783813 0.0824132 0.268351
25230 5 0.0803318 0.0251368 0.267655
22671 1 0.109097 0.0520974 0.267474
25171 1 0.0110027 0.0556425 0.26322
25229 5 0.0375598 0.0237516 0.264036
25294 1 0.00661806 0.115494 0.266628
25306 5 0.0374895 0.0852014 0.262201
25226 2 0.0612692 0.0917652 0.260626
25225 2 0.0616325 0.0179286 0.26023
25496 9 0.0227043 0.0345625 0.303261
25288 6 0.0824195 0.0785808 0.308912
25497 9 0.0227397 0.0989756 0.309577
22619 1 0.112966 0.114578 0.269135
25300 4 0.0620343 0.116704 0.262786
25248 5 0.0555002 0.118 0.291807
22699 5 0.114828 0.112815 0.289597
22624 5 0.11553 0.0534603 0.287335
25218 6 0.0706813 0.0186849 0.308877
25247 5 0.0140477 0.117068 0.286069
25184 7 0.058799 0.00946112 0.30579
25256 7 0.0990672 0.0738643 0.309781
22944 9 0.127501 0.100384 0.309495
25495 9 0.00832468 0.000900758 0.30726
14265 7 0.495277 0.0770544 0.479575
11670 6 0.496698 0.0244666 0.493963
19994 5 0.229252 0.00102265 0.302983
22675 3 0.166417 0.0932382 0.252002
22622 3 0.124711 0.0608329 0.306521
22623 4 0.134386 0.0248478 0.296438
22681 5 0.139718 0.0264637 0.263932
22620 2 0.132289 0.0498548 0.29592
19999 4 0.223909 0.045058 0.301323
19993 2 0.233441 0.0611904 0.293482
20068 2 0.235627 0.110814 0.295736
20071 4 0.234115 0.0853653 0.297796
22625 5 0.157762 0.0549363 0.29411
22627 5 0.158044 0.115986 0.292784
22618 1 0.181751 0.0872669 0.289539
20076 5 0.217521 0.0588394 0.283919
22600 1 0.188167 0.0254653 0.290989
22609 5 0.180566 0.0251893 0.271683
22678 5 0.178534 0.0865301 0.271168
19990 1 0.216569 0.0567579 0.266696
22677 5 0.137561 0.0811431 0.264743
20129 5 0.241109 0.0861393 0.265785
20053 5 0.237425 0.0236111 0.264187
22602 2 0.164122 0.0299374 0.262777
22673 2 0.162903 0.0796915 0.26249
22676 4 0.166829 0.0552284 0.259804
19998 3 0.189948 0.020563 0.309401
19992 8 0.220924 0.0235555 0.310735
20119 1 0.209733 0.11922 0.268112
20072 5 0.217128 0.118176 0.288177
22608 3 0.17239 0.0166332 0.252848
20070 3 0.230996 0.122964 0.30624
22943 9 0.138962 0.0617553 0.311422
22626 3 0.128677 0.116332 0.30801
22621 2 0.134835 0.121222 0.295976
22920 9 0.166077 0.128861 0.25052
21974 6 0.116662 0.000619425 0.399578
20000 5 0.257214 0.0544029 0.290762
17448 5 0.358519 0.118096 0.28831
17440 8 0.325874 0.087403 0.30929
17446 3 0.294499 0.085085 0.309121
17442 5 0.329796 0.0637531 0.300992
17447 4 0.327986 0.109245 0.300026
17443 4 0.338779 0.0244722 0.294398
17439 2 0.334624 0.0490487 0.291353
20048 1 0.292193 0.0875079 0.289838
19989 1 0.281843 0.024746 0.28739
17445 5 0.356993 0.0572744 0.286988
17444 5 0.315661 0.0512555 0.283492
20057 5 0.28092 0.0864639 0.269936
17495 1 0.307396 0.0531765 0.26675
17506 5 0.335737 0.0323722 0.263663
20054 5 0.278611 0.0264099 0.266282
17438 1 0.314037 0.119305 0.265156
17501 5 0.335602 0.0872484 0.262016
17421 2 0.359712 0.0306837 0.25915
20050 2 0.263499 0.0950655 0.262046
20049 2 0.260467 0.017991 0.258877
17497 2 0.357515 0.0804938 0.256987
20040 6 0.282989 0.0217483 0.308332
17500 4 0.362626 0.0547873 0.255428
20073 5 0.260593 0.116598 0.293573
20124 4 0.265293 0.120255 0.261816
20056 3 0.266827 0.0855925 0.250421
17857 9 0.286261 0.0717028 0.311958
20005 7 0.269481 0.0233694 0.313119
17427 4 0.356844 0.01406 0.250453
17502 5 0.376382 0.0859769 0.265158
17428 5 0.378487 0.0248282 0.266756
17380 7 0.403589 0.00504236 0.303816
17437 1 0.382467 0.0861805 0.28444
14822 3 0.425215 0.0520141 0.302749
14891 4 0.436792 0.0872136 0.293485
14817 2 0.435377 0.062389 0.291912
14887 2 0.434516 0.111787 0.289679
14823 5 0.458222 0.0534636 0.288902
17418 1 0.388131 0.023379 0.285788
14893 5 0.457101 0.119233 0.285289
14897 5 0.417688 0.0587069 0.283293
14892 5 0.414356 0.114717 0.28246
14866 1 0.486142 0.0862994 0.286969
14814 1 0.481975 0.0221776 0.285504
14873 5 0.476366 0.0208183 0.265837
14876 5 0.478497 0.086007 0.266755
14815 1 0.411649 0.0530722 0.263603
14943 1 0.405963 0.117635 0.263248
14954 5 0.436206 0.0854461 0.263412
17412 6 0.394731 0.0187159 0.306131
14869 2 0.458935 0.0904983 0.259285
14872 5 0.435469 0.0138623 0.262464
14867 2 0.458727 0.0135885 0.257612
14948 4 0.45786 0.115166 0.255042
14860 6 0.488511 0.0870817 0.306809
17379 7 0.40758 0.0288195 0.306892
15286 9 0.430127 0.0613496 0.308603
14890 5 0.428341 0.12681 0.298759
25296 2 0.057715 0.141747 0.262468
25241 1 0.078072 0.150113 0.290525
25249 3 0.0205418 0.179754 0.305194
25360 6 0.0870904 0.205276 0.309504
25320 4 0.02494 0.213697 0.294974
25317 2 0.0290783 0.239064 0.293862
25295 1 0.0843054 0.21159 0.288109
25250 5 0.0521635 0.181329 0.292199
25244 2 0.0282263 0.189442 0.294521
25325 5 0.0139185 0.17997 0.285428
25302 5 0.0753281 0.152617 0.269153
25305 5 0.0774319 0.208324 0.268588
22742 1 0.106413 0.178825 0.268932
25301 5 0.035694 0.149529 0.26749
25242 1 0.0112303 0.178109 0.266567
25376 5 0.0351663 0.213671 0.266055
25298 2 0.0579984 0.214735 0.260662
25289 6 0.0864387 0.139836 0.310251
25366 1 0.00556 0.242397 0.266086
25498 9 0.0199359 0.190099 0.311313
25371 4 0.0603011 0.239171 0.258158
22690 1 0.110904 0.242316 0.265955
22695 5 0.113926 0.180397 0.288719
25499 9 0.0152405 0.248187 0.308647
25299 5 0.0541865 0.152967 0.251866
22773 5 0.116886 0.245633 0.284222
25331 7 0.0959475 0.192553 0.311207
25322 5 0.053754 0.24135 0.290348
25330 7 0.0970585 0.217402 0.30734
25304 4 0.0543809 0.198158 0.251758
25255 7 0.0999398 0.129849 0.310446
25321 5 0.0112064 0.247855 0.286691
22945 9 0.124892 0.162503 0.311531
22693 3 0.127128 0.175568 0.307944
24744 7 0.00367528 0.167082 0.415397
22697 3 0.122971 0.241938 0.304014
22694 4 0.133129 0.146122 0.294926
22691 2 0.133241 0.170975 0.295631
22748 4 0.161959 0.177688 0.26054
22674 2 0.15818 0.152631 0.262155
22754 5 0.135625 0.146592 0.267122
20202 5 0.239391 0.21188 0.263627
22672 1 0.187398 0.148848 0.289103
20142 4 0.235524 0.212381 0.293483
20147 5 0.215536 0.180563 0.287226
22696 5 0.155856 0.180604 0.293012
20074 3 0.232023 0.183885 0.306099
20069 2 0.23555 0.187665 0.294014
22689 1 0.179576 0.209638 0.290108
20392 9 0.231741 0.198321 0.310222
20139 2 0.233374 0.237904 0.293097
20067 1 0.213969 0.179737 0.266543
22680 5 0.177257 0.145395 0.269365
22750 5 0.176905 0.210291 0.270765
22749 5 0.137003 0.205012 0.267964
20125 5 0.239984 0.152878 0.265758
22744 2 0.159402 0.202657 0.263066
22737 6 0.189653 0.210403 0.310453
22736 6 0.194088 0.154398 0.310249
22698 5 0.156691 0.241409 0.291338
20190 1 0.207938 0.241623 0.266005
20143 5 0.216626 0.245984 0.285074
20393 9 0.229224 0.236006 0.309679
22705 7 0.202271 0.16836 0.310071
22704 7 0.204517 0.142392 0.307986
22747 5 0.157429 0.218259 0.253743
20141 3 0.229301 0.247859 0.304356
22703 7 0.200169 0.215866 0.315392
22679 3 0.157561 0.141607 0.250861
22702 7 0.187269 0.19554 0.313428
22952 7 0.13759 0.229925 0.316749
11802 6 0.498411 0.218387 0.412097
14673 7 0.473731 0.096211 0.50063
17524 5 0.319992 0.120641 0.281534
17441 2 0.335136 0.124162 0.291033
21964 2 0.195144 0.00213709 0.437228
17572 4 0.364478 0.183584 0.256161
20126 5 0.281195 0.154548 0.267471
20075 5 0.257166 0.177402 0.289917
20066 1 0.284247 0.147859 0.290094
17516 2 0.334728 0.175316 0.294009
17518 3 0.336071 0.181957 0.305714
20114 6 0.294532 0.207119 0.308465
17519 4 0.333882 0.149092 0.294091
17521 5 0.358456 0.180477 0.289367
20120 1 0.28647 0.21229 0.288172
17520 5 0.315805 0.183876 0.287366
17595 5 0.316289 0.241491 0.286771
17567 1 0.307475 0.181711 0.267221
20128 5 0.27884 0.21155 0.267916
17577 5 0.336075 0.155589 0.261896
17573 5 0.335406 0.212484 0.26234
17498 2 0.360914 0.158001 0.258155
20121 2 0.261722 0.145017 0.261716
17569 2 0.359218 0.207744 0.258789
20122 2 0.26183 0.218957 0.259492
20196 4 0.261067 0.243987 0.259491
20113 6 0.27967 0.145536 0.310011
17523 5 0.357973 0.238174 0.288411
17515 1 0.312456 0.244862 0.266243
17840 9 0.318472 0.24106 0.307126
17530 7 0.366578 0.223274 0.310402
20079 7 0.307657 0.198507 0.310023
20082 7 0.273305 0.155377 0.315343
17529 7 0.365983 0.198538 0.306399
20144 5 0.257099 0.243099 0.289933
20081 7 0.266135 0.136915 0.309611
17522 3 0.334279 0.244019 0.305608
17839 9 0.332495 0.169874 0.310406
16936 5 0.409243 0.179053 0.44651
17517 2 0.336939 0.248557 0.293073
17561 6 0.376438 0.210927 0.307926
15305 9 0.380737 0.157373 0.310763
17574 5 0.377277 0.211517 0.267145
15020 4 0.466274 0.24606 0.256304
17505 5 0.378216 0.149416 0.266555
17514 1 0.381937 0.212132 0.287373
14945 2 0.460408 0.140062 0.257055
14886 1 0.41356 0.181818 0.261987
14894 3 0.391215 0.151666 0.304888
14972 5 0.416323 0.184783 0.2802
14896 5 0.456931 0.18322 0.287784
14888 8 0.421356 0.150433 0.307078
12342 3 0.490327 0.213964 0.305273
14895 4 0.426646 0.172703 0.298466
14964 2 0.434118 0.238082 0.292493
14967 4 0.432673 0.212194 0.292766
14889 2 0.432673 0.188193 0.28944
17496 1 0.387273 0.148078 0.285686
14944 1 0.487846 0.212415 0.285611
14885 1 0.48225 0.15085 0.285296
14953 5 0.482051 0.211127 0.264674
14936 6 0.487262 0.143427 0.305571
14950 5 0.478771 0.145326 0.264885
15025 5 0.44025 0.215779 0.261358
14949 5 0.438007 0.149332 0.26166
14946 2 0.462911 0.220522 0.257662
15015 1 0.408204 0.240468 0.264556
14969 5 0.457431 0.241065 0.286978
14901 7 0.499503 0.13468 0.308896
14968 5 0.415549 0.246056 0.285258
14966 3 0.432853 0.245636 0.304148
14900 7 0.475138 0.144764 0.310714
12753 9 0.480286 0.203937 0.309616
25257 7 0.0766601 0.0805638 0.316007
25183 7 0.0654876 0.0218576 0.316401
24544 6 0.0905621 0.0314877 0.337373
24654 7 0.0659857 0.0808292 0.33798
24655 7 0.087443 0.0707191 0.333459
24614 6 0.0812696 0.0842304 0.335127
24820 9 0.0369127 0.0426742 0.338437
24550 1 0.0861551 0.0864859 0.356129
24571 2 0.0314944 0.0611477 0.352287
24576 3 0.0250636 0.0444502 0.344111
24577 5 0.056287 0.0586502 0.35467
24639 2 0.0327963 0.111567 0.35327
24643 4 0.0310002 0.0863275 0.350325
24644 5 0.0151831 0.116071 0.36149
24645 5 0.055808 0.117857 0.35575
24649 5 0.0180865 0.0557907 0.362593
24568 1 0.0822609 0.0251015 0.357679
22022 5 0.119769 0.0582701 0.357467
22097 5 0.117449 0.116385 0.356693
24582 7 0.0899478 0.0266417 0.330015
24581 7 0.104874 0.0391989 0.338356
25186 7 0.0291 0.0169988 0.318142
25217 6 0.036779 0.0216732 0.32477
25185 7 0.0349149 0.00922626 0.329611
22266 9 0.120495 0.00924377 0.33653
22267 9 0.130274 0.075209 0.338417
22024 3 0.130269 0.108275 0.338125
20409 9 0.181643 0.00574631 0.309708
22268 9 0.122674 0.117214 0.332384
20391 9 0.236031 0.114427 0.312468
22020 3 0.132952 0.0590545 0.338313
22633 7 0.165904 0.0480066 0.318527
22665 6 0.162296 0.063634 0.319012
22634 7 0.152217 0.0643032 0.325468
22032 7 0.185492 0.0248245 0.325129
22021 4 0.135537 0.0261069 0.350036
20065 6 0.24323 0.0272479 0.322005
22631 7 0.178399 0.0899254 0.329341
22632 7 0.196481 0.10832 0.330813
19714 9 0.215512 0.0705025 0.335614
22666 6 0.189351 0.0949123 0.334188
19468 3 0.235213 0.119277 0.335519
19398 3 0.224758 0.0585852 0.338124
19466 2 0.237707 0.112698 0.347706
19469 4 0.235736 0.088184 0.350451
19393 2 0.235093 0.0632352 0.349361
19474 5 0.217799 0.0529569 0.35695
22016 1 0.186239 0.0896785 0.354568
22018 2 0.137944 0.0509667 0.349834