ITEM: TIMESTEP
573000
ITEM: NUMBER OF ATOMS
25520
ITEM: BOX BOUNDS pp pp pp
-3.9638190389631911e-01 6.0094925493897598e+01
-1.9520942249708029e+00 5.9122379498970282e+01
-1.2659713160757725e+01 1.1193544556676629e+02
ITEM: ATOMS id type xs ys zs
25182 6 0.105649 0.0204078 0.152571
25252 6 0.106228 0.0878475 0.151694
25214 3 0.0320197 0.0461568 0.156417
25287 5 0.0266313 0.0540915 0.17482
25283 5 0.0664899 0.11841 0.169786
25282 5 0.0253572 0.112881 0.17546
25281 4 0.042316 0.0853684 0.163585
25277 2 0.0432341 0.109969 0.166976
25215 5 0.0653784 0.0511229 0.168758
25209 2 0.0423738 0.0594522 0.165899
25188 1 0.0966912 0.0831132 0.170579
25458 9 0.0411499 0.0475152 0.15015
25206 1 0.093942 0.0219918 0.172552
25292 7 0.116981 0.0768456 0.149236
25293 7 0.116759 0.10081 0.152007
25219 7 0.116754 0.0319245 0.151291
25220 7 0.114745 0.00729369 0.151902
2433 1 0.00167268 0.0207768 0.176575
22735 5 0.127548 0.115126 0.172181
22660 5 0.129867 0.0539186 0.173844
22905 9 0.149295 0.0629635 0.151053
22662 3 0.145049 0.112125 0.153308
22658 3 0.140809 0.051681 0.154332
22656 2 0.149209 0.0481567 0.166202
20112 5 0.230789 0.0546226 0.173991
22663 5 0.169565 0.117089 0.168544
22654 1 0.195475 0.0846606 0.17077
22661 5 0.173021 0.0568088 0.168612
22659 4 0.152645 0.0232679 0.167434
22563 1 0.201472 0.0223243 0.173884
22629 6 0.210442 0.0151412 0.153474
22630 6 0.201778 0.0922778 0.150238
22667 7 0.203559 0.0884416 0.142612
22668 7 0.21556 0.0987381 0.152251
20108 5 0.229394 0.11734 0.171063
22670 7 0.216396 0.0175948 0.146115
20036 3 0.246192 0.045332 0.156336
20106 3 0.244278 0.119078 0.152552
20031 2 0.250127 0.059055 0.16668
20352 9 0.231529 0.0462274 0.15375
20104 2 0.248844 0.109089 0.164059
22906 9 0.160526 0.10969 0.150739
22657 2 0.146015 0.122879 0.164546
20107 4 0.249838 0.0841916 0.163977
22669 7 0.218541 0.00122857 0.155147
20353 9 0.256847 0.116005 0.14795
22517 7 0.2556 0.0287847 0.141521
20118 7 0.316377 0.0714066 0.151898
20117 7 0.321451 0.0952912 0.153409
20077 6 0.308817 0.0856165 0.152938
17480 3 0.338676 0.0537397 0.156604
17799 9 0.349515 0.0656128 0.155324
17478 2 0.347053 0.0435722 0.167913
20109 5 0.270449 0.117175 0.168712
17482 5 0.329811 0.050917 0.176297
20037 5 0.271343 0.0523409 0.171955
20011 1 0.300769 0.0848811 0.173222
20028 1 0.295526 0.0209499 0.173829
17481 4 0.343282 0.0177643 0.166925
17560 5 0.328469 0.112476 0.172854
17484 3 0.349817 0.108347 0.15491
20003 6 0.290487 0.01053 0.153935
17485 5 0.370191 0.111545 0.171202
17483 5 0.370722 0.0498864 0.170612
20042 7 0.28174 0.0147403 0.146834
22482 6 0.259956 0.0151436 0.137873
17479 2 0.348693 0.119491 0.166095
17800 9 0.360514 0.115868 0.150334
22518 7 0.251149 0.00455753 0.142033
17489 7 0.422706 0.0768056 0.155742
17490 7 0.417465 0.096838 0.150052
17451 6 0.409423 0.0838214 0.152842
14856 3 0.441782 0.049101 0.156752
15246 9 0.455372 0.0498586 0.152425
14929 4 0.444901 0.0829583 0.169054
14926 2 0.448373 0.10773 0.16817
14851 2 0.446945 0.0577845 0.168433
14931 5 0.472095 0.111854 0.171804
14857 5 0.469495 0.0490116 0.172035
17476 1 0.393121 0.081358 0.171892
14934 5 0.428871 0.0500918 0.176122
14930 5 0.432692 0.117845 0.176262
17384 1 0.401498 0.0190606 0.174853
17450 6 0.409187 0.0150279 0.154231
17492 7 0.416937 0.0284781 0.153278
14848 1 0.495201 0.0217287 0.17378
14928 3 0.443966 0.116513 0.156545
14862 7 0.496972 0.0337449 0.147604
17491 7 0.419713 0.00479309 0.152281
25280 5 0.0345573 0.124644 0.15846
25290 7 0.111308 0.163663 0.155297
2033 7 0.0380805 0.137222 0.131928
25253 6 0.0976128 0.156351 0.152125
2032 7 0.0450176 0.164181 0.134359
1995 6 0.0321104 0.151736 0.135743
25275 1 0.0920546 0.147889 0.171809
25278 8 0.0282197 0.14859 0.151398
22957 9 0.0942602 0.235893 0.151868
22732 3 0.102302 0.221203 0.154257
25285 4 0.0382938 0.169665 0.15979
25359 5 0.0283126 0.17952 0.177207
25356 5 0.0717463 0.24122 0.171274
25354 4 0.0433132 0.21108 0.16612
25351 2 0.0479274 0.235467 0.168087
25286 5 0.0683096 0.176103 0.170716
25279 2 0.0455886 0.185343 0.168138
25259 1 0.100813 0.210395 0.172262
25355 5 0.0302591 0.244165 0.175945
25394 6 0.0744818 0.185007 0.139831
25291 7 0.0926809 0.16381 0.145724
25432 7 0.0620827 0.180076 0.143795
25433 7 0.0794829 0.194932 0.144938
2103 7 0.00230153 0.200413 0.14905
25353 3 0.0446668 0.248438 0.157404
22726 8 0.131106 0.21377 0.151038
1962 7 0.14546 0.192552 0.133719
22741 7 0.205374 0.135939 0.143931
1963 7 0.154166 0.216746 0.133812
22740 7 0.213047 0.157863 0.148491
1927 6 0.140432 0.20733 0.136683
22730 5 0.129005 0.17725 0.175853
22700 6 0.200256 0.148062 0.148165
22636 1 0.199694 0.146167 0.169766
22729 4 0.145266 0.148076 0.163275
22733 4 0.141169 0.235314 0.159143
20188 7 0.217486 0.203897 0.151675
20189 7 0.195979 0.194001 0.152989
20148 6 0.202201 0.208143 0.152426
22728 5 0.137809 0.19081 0.159289
22725 2 0.145516 0.172654 0.167072
20178 5 0.229819 0.239461 0.177515
20183 5 0.231103 0.177606 0.175905
22723 1 0.195054 0.208771 0.172248
22731 5 0.169913 0.179462 0.169099
22734 5 0.171472 0.241128 0.172226
22807 5 0.132709 0.242826 0.177376
20110 3 0.234473 0.172781 0.156232
20173 2 0.245181 0.233869 0.168157
20105 2 0.24485 0.183574 0.166267
20177 4 0.243978 0.209235 0.164702
25238 7 -0.000652221 0.0117638 0.242524
20354 9 0.24418 0.160017 0.154136
17555 4 0.344286 0.144499 0.164891
20102 1 0.295863 0.145454 0.170776
17554 3 0.349468 0.177113 0.153006
17801 9 0.351217 0.193136 0.152732
17558 3 0.341496 0.233268 0.154985
17552 2 0.347641 0.16964 0.164859
17556 5 0.328688 0.178665 0.171498
20111 5 0.271046 0.176945 0.167473
20084 1 0.300023 0.209152 0.171756
20179 5 0.269576 0.236498 0.171081
17631 5 0.32858 0.239303 0.173974
17557 5 0.369593 0.1725 0.170153
17559 5 0.37134 0.238415 0.168612
17553 2 0.347671 0.245305 0.165854
17802 9 0.346653 0.243291 0.149247
14940 7 0.494685 0.155054 0.151486
15247 9 0.444249 0.132571 0.156582
17564 7 0.417973 0.198671 0.146621
17563 7 0.406205 0.218474 0.144296
17565 7 0.409564 0.135361 0.150395
17566 7 0.392707 0.153178 0.149604
14938 7 0.470938 0.201419 0.140199
14937 7 0.451065 0.197121 0.147727
17525 6 0.405377 0.149133 0.15373
17459 1 0.400434 0.147627 0.174162
17526 6 0.407713 0.208065 0.150088
14899 6 0.455681 0.204566 0.140695
15248 9 0.432851 0.162653 0.155893
15002 3 0.443869 0.240193 0.151967
14932 3 0.447413 0.168901 0.155521
15000 2 0.450457 0.230994 0.163049
15003 4 0.450187 0.205504 0.16394
14927 2 0.451532 0.181212 0.166433
15005 5 0.473078 0.239494 0.166503
14933 5 0.474646 0.17444 0.17085
15004 5 0.43171 0.238 0.170834
17550 1 0.396809 0.206869 0.16987
15008 5 0.432811 0.175595 0.174636
15249 9 0.447045 0.2292 0.146342
14924 1 0.498541 0.14388 0.17421
12292 7 0.499175 0.0664337 0.219044
25202 7 0.0740144 0.0153131 0.225564
25227 3 0.0683544 0.026231 0.249614
22687 7 0.0957418 0.0565762 0.244923
25471 9 0.0677184 0.0151949 0.244075
25198 5 0.0914937 0.0846333 0.190098
25195 5 0.0930928 0.0226208 0.192925
25268 5 0.0519189 0.0803871 0.195724
25258 1 0.0207684 0.114955 0.195692
25207 1 0.0275353 0.0536163 0.196209
25191 2 0.0743489 0.0903655 0.198826
25263 4 0.070128 0.115459 0.199958
25197 4 0.0772785 0.0798553 0.209657
25192 5 0.0721068 0.0329257 0.209622
25196 3 0.0323432 0.0587213 0.21449
25190 8 0.062843 0.0565069 0.216537
25510 9 0.0245478 0.0736294 0.2144
25517 7 0.0668411 0.0678457 0.236855
25240 6 0.0724413 0.0552647 0.231368
22685 7 0.0808027 0.101989 0.219535
25506 7 0.0697542 0.0397185 0.235622
22649 6 0.0843092 0.113517 0.225317
25194 5 0.0514381 0.0173316 0.195822
25189 2 0.0747553 0.015597 0.200613
25308 6 0.0250504 0.111281 0.215151
25472 9 0.0585412 0.100724 0.244526
25272 7 0.0341336 0.119147 0.220652
22635 1 0.121974 0.0545703 0.192727
25201 6 0.0130373 0.0466632 0.24278
22717 6 0.108647 0.114985 0.246031
22958 9 0.114099 0.118433 0.215747
22759 7 0.100208 0.113842 0.239138
25236 7 0.0283712 0.0481447 0.240874
22686 7 0.10276 0.0802801 0.245771
25271 7 0.0115481 0.106138 0.218993
22650 7 0.106276 0.0677451 0.211265
22684 7 0.069974 0.115294 0.228966
22683 6 0.119945 0.0595494 0.212609
25205 7 0.00231556 0.000527857 0.21861
22648 6 0.107088 0.0655707 0.248279
25309 7 0.0288444 0.120695 0.238299
25270 6 0.0442009 0.122373 0.235714
22760 7 0.121343 0.122892 0.243468
25235 6 0.0772157 0.00206972 0.229842
22614 7 0.0948585 0.00279436 0.242467
22613 7 0.119707 0.00846953 0.242022
22651 7 0.125251 0.0638004 0.219826
22655 1 0.125826 0.114751 0.191598
2104 7 0.019334 0.211658 0.155125
20062 7 0.137612 0.0704541 0.239811
20023 6 0.142322 0.0669453 0.232535
20134 7 0.2216 0.0508411 0.243903
20061 7 0.158021 0.0689654 0.233086
22643 5 0.196077 0.0856525 0.191104
22572 5 0.192082 0.023083 0.193286
20083 1 0.224586 0.116592 0.192167
20029 1 0.228944 0.0564736 0.19454
22642 5 0.153835 0.086001 0.192442
20063 7 0.185219 0.0515863 0.222371
22637 2 0.175768 0.0804219 0.19829
22641 4 0.176765 0.0561079 0.201115
22565 2 0.174908 0.0305613 0.201173
22640 5 0.171088 0.0941381 0.208154
20060 6 0.225638 0.057126 0.214839
20022 6 0.189201 0.065682 0.225093
20064 7 0.181007 0.0751591 0.219797
22647 5 0.151366 0.0228468 0.198077
20096 6 0.208841 0.0578334 0.247084
22571 3 0.180031 0.023056 0.212972
22638 8 0.158144 0.115694 0.215582
22644 3 0.128156 0.116238 0.211303
17471 6 0.238738 0.0249892 0.228287
20135 7 0.199787 0.0603165 0.240689
22965 7 0.159254 0.10417 0.2357
22577 7 0.144637 0.034893 0.233173
20025 7 0.212062 0.0635018 0.218381
22688 6 0.164912 0.117594 0.230565
22612 6 0.147666 0.0195538 0.232919
22576 7 0.158478 0.0172165 0.227442
20024 7 0.229523 0.0436436 0.220428
20101 7 0.232968 0.0815875 0.229547
20130 6 0.23318 0.0963109 0.231294
22918 9 0.156861 0.0235833 0.246652
22931 9 0.19367 0.0144854 0.212964
20009 7 0.218912 0.00703023 0.243303
20098 7 0.226344 0.110682 0.220265
20131 6 0.219787 0.113638 0.2131
17510 7 0.245343 0.0304676 0.235212
20132 7 0.213365 0.111158 0.243115
20097 6 0.202871 0.117178 0.248635
20099 7 0.203399 0.112553 0.214648
20100 7 0.249564 0.100249 0.231575
20366 9 0.246437 0.0860202 0.247332
22954 7 0.166454 0.13245 0.234717
20016 5 0.251537 0.0233254 0.197761
17860 7 0.356924 0.000785387 0.223232
17509 7 0.251272 0.019134 0.224642
17456 7 0.283758 0.0733181 0.245811
20095 5 0.253374 0.0839931 0.198323
20051 3 0.260121 0.0310047 0.248347
20020 5 0.294053 0.0833071 0.194007
20017 5 0.292404 0.0260245 0.194764
17477 1 0.328096 0.116573 0.195515
17458 1 0.322964 0.0527007 0.195762
17464 5 0.352288 0.0875209 0.196334
20013 2 0.27641 0.0904676 0.201852
20379 9 0.282411 0.0932629 0.218804
20089 4 0.279447 0.11582 0.201893
20019 3 0.280352 0.0817847 0.213335
20378 9 0.273252 0.0427074 0.214025
17466 6 0.317908 0.0468947 0.216515
17493 7 0.323947 0.054135 0.222755
17494 7 0.301905 0.0455329 0.217068
14960 7 0.335107 0.0897227 0.234846
14918 6 0.32538 0.0843875 0.229262
14959 7 0.32457 0.0965984 0.225073
17469 5 0.351633 0.0186977 0.198971
20014 3 0.276074 0.0263855 0.213578
20012 2 0.273778 0.0167768 0.20224
17503 6 0.296456 0.0626416 0.245433
17499 3 0.36176 0.0930604 0.245872
17578 6 0.27704 0.119062 0.227036
17457 7 0.3084 0.0687794 0.241233
17813 9 0.365215 0.108497 0.247001
17548 7 0.27574 0.129836 0.22131
17507 6 0.319478 0.00271577 0.218287
17460 2 0.375312 0.0775073 0.198614
17463 4 0.372139 0.0531593 0.200781
14847 7 0.368516 0.07162 0.229903
17475 7 0.325744 0.0141981 0.222108
14846 7 0.372482 0.0516452 0.235035
17508 6 0.337861 0.120415 0.216123
17472 7 0.35397 0.119804 0.215912
17826 9 0.380197 0.0830422 0.215356
17386 2 0.373929 0.0285883 0.202409
17462 3 0.380765 0.0913397 0.209094
14878 6 0.37817 0.0592702 0.2287
17825 9 0.379541 0.0378904 0.218728
17474 7 0.304406 0.00756109 0.217818
17391 3 0.378578 0.0242348 0.214252
15272 9 0.482559 0.0132448 0.217686
14840 5 0.493937 0.0801646 0.1964
17465 5 0.392411 0.0819573 0.189875
14906 1 0.421546 0.114902 0.195355
17392 5 0.391834 0.0188196 0.195387
14849 1 0.425503 0.0540549 0.19707
14917 5 0.451966 0.0824669 0.197493
14837 5 0.451684 0.0238979 0.199248
14911 4 0.475709 0.114937 0.202208
14834 2 0.473902 0.089239 0.202414
14839 3 0.472534 0.0815111 0.214395
14955 6 0.416731 0.062696 0.216213
15273 9 0.470066 0.0946294 0.219248
14922 7 0.402567 0.064609 0.219521
14923 7 0.427391 0.0594793 0.22195
15308 7 0.460287 0.0522359 0.224126
14884 6 0.451169 0.0429721 0.229505
15297 7 0.458645 0.0263101 0.229573
15303 9 0.401757 0.0532228 0.24148
14868 8 0.44425 0.0532331 0.243842
14835 3 0.48378 0.0244571 0.211975
14874 3 0.414006 0.052973 0.247452
14833 2 0.474328 0.0150118 0.201227
14914 6 0.416615 0.119363 0.215647
14838 5 0.491625 0.0207339 0.192709
14951 6 0.415057 0.114952 0.242343
14941 7 0.407931 0.106197 0.21598
12366 6 0.477461 0.115471 0.230658
14905 7 0.428332 0.105972 0.242349
14904 7 0.418061 0.124204 0.235942
14844 7 0.401207 0.000442058 0.218381
14942 7 0.403643 0.130126 0.21434
12408 7 0.469451 0.12054 0.236368
12407 7 0.477413 0.127927 0.225688
22829 7 0.051921 0.243472 0.227302
22825 6 0.118831 0.234033 0.214432
25310 7 0.0507942 0.133568 0.241435
25512 9 0.00626882 0.180942 0.238962
25484 9 0.0813837 0.131866 0.215743
22757 7 0.11985 0.17405 0.242669
25267 5 0.0928287 0.207928 0.192669
25265 5 0.0916088 0.147154 0.19242
25303 3 0.0179757 0.179433 0.244882
25260 2 0.0729616 0.140127 0.199723
25264 5 0.0501641 0.150781 0.197118
25332 1 0.0215402 0.240971 0.195
25276 1 0.0266344 0.177925 0.196654
25342 5 0.0509241 0.20621 0.196364
25337 4 0.0705205 0.24027 0.202302
25261 2 0.0736857 0.215463 0.199911
25266 3 0.0784823 0.206502 0.211771
25262 3 0.0801051 0.146226 0.21146
25485 9 0.080886 0.190657 0.210984
22720 7 0.103452 0.163296 0.21508
25377 6 0.0193356 0.171289 0.216788
25507 7 0.069595 0.191177 0.225055
25518 7 0.0633534 0.16371 0.224418
25314 6 0.0675865 0.177162 0.229975
25297 8 0.0487158 0.179622 0.242411
22830 7 0.0712 0.234427 0.220187
22751 3 0.113326 0.240107 0.243992
22756 6 0.117415 0.169386 0.213602
22758 7 0.0943211 0.178868 0.239941
22718 6 0.104622 0.177896 0.246218
25378 6 0.0199387 0.237616 0.215422
22706 1 0.122422 0.177698 0.193659
25348 7 0.0125783 0.156645 0.216885
25347 7 0.00478537 0.178851 0.217546
25345 7 0.00881624 0.226544 0.21787
22795 7 0.105699 0.226156 0.21477
22960 9 0.102506 0.238731 0.237565
22791 6 0.0686239 0.243568 0.226544
25304 4 0.0562676 0.203065 0.250267
20133 7 0.192237 0.124344 0.243362
22719 7 0.125029 0.173109 0.220555
22796 7 0.130586 0.2235 0.216987
22724 1 0.129034 0.238693 0.195449
20167 7 0.209072 0.226165 0.216902
22646 5 0.192948 0.143763 0.190576
22713 5 0.194164 0.21149 0.194098
20103 1 0.226803 0.178502 0.19345
22716 5 0.151289 0.153075 0.193661
20154 1 0.223934 0.240222 0.195463
22722 7 0.149189 0.168032 0.239539
22645 4 0.170325 0.13609 0.20722
22712 5 0.153684 0.207464 0.197828
22639 2 0.174858 0.152799 0.198238
22708 2 0.17651 0.201826 0.201495
22711 4 0.18089 0.176429 0.201511
22710 3 0.182854 0.207797 0.213439
22932 9 0.184193 0.193195 0.217501
20204 6 0.219946 0.237486 0.216393
20092 3 0.23321 0.171693 0.212801
22721 7 0.14448 0.190046 0.242014
20406 9 0.219857 0.16941 0.21774
22745 8 0.144174 0.241076 0.24171
20166 6 0.183621 0.168736 0.224474
20206 7 0.17111 0.175725 0.227917
22755 6 0.142501 0.179666 0.236169
20205 7 0.177603 0.157771 0.219302
22762 6 0.156242 0.236408 0.227761
20169 7 0.199339 0.180524 0.240147
20203 6 0.208612 0.183474 0.246315
22955 7 0.164222 0.222275 0.224904
20170 7 0.223723 0.184312 0.242794
22966 7 0.160681 0.248721 0.222336
20168 7 0.209304 0.249971 0.214935
17549 7 0.269183 0.122871 0.232803
17583 7 0.313473 0.118608 0.235887
17544 6 0.312585 0.125676 0.242768
17473 7 0.335163 0.135998 0.217695
20090 5 0.254445 0.144958 0.193988
20367 9 0.260151 0.128641 0.245592
17617 7 0.250128 0.232251 0.226165
17582 7 0.327549 0.132075 0.243701
20164 5 0.253448 0.211716 0.196233
17651 6 0.259265 0.242298 0.229557
20368 9 0.256845 0.224073 0.241545
20091 5 0.293684 0.147214 0.190727
20094 5 0.294357 0.206941 0.192967
17531 1 0.323414 0.179019 0.192843
17551 1 0.327154 0.240398 0.194152
17538 5 0.350643 0.20039 0.192615
17543 5 0.352441 0.147516 0.197955
20085 2 0.276772 0.140358 0.198911
20086 8 0.263427 0.175197 0.216978
20087 2 0.276105 0.214237 0.200739
20159 4 0.278905 0.237847 0.203615
20088 5 0.275029 0.1535 0.209165
20093 4 0.273035 0.197142 0.209737
17547 7 0.310044 0.186727 0.216347
17540 3 0.335784 0.240435 0.213632
17579 6 0.32367 0.177985 0.213752
17546 7 0.335902 0.181344 0.21833
20136 6 0.271683 0.177738 0.232015
20413 7 0.266494 0.190601 0.236305
20402 7 0.264746 0.163717 0.236948
17534 8 0.365509 0.239028 0.214443
17814 9 0.365181 0.153252 0.240664
20127 3 0.259773 0.212547 0.246783
14996 7 0.360016 0.182891 0.238737
15026 6 0.360217 0.184232 0.231059
20123 3 0.258314 0.143009 0.247378
17571 3 0.360725 0.22052 0.24739
17815 9 0.35534 0.235018 0.247741
14908 2 0.474866 0.140113 0.201699
17854 9 0.32723 0.249307 0.219949
17504 3 0.357784 0.144648 0.245834
14997 7 0.362499 0.199949 0.230612
17536 5 0.371895 0.218963 0.205137
17461 2 0.375408 0.152321 0.202761
17827 9 0.370851 0.158358 0.218955
17467 3 0.375826 0.145572 0.215218
17850 7 0.386554 0.249679 0.231943
17584 6 0.382525 0.234143 0.228362
17537 4 0.37921 0.178902 0.202576
17861 7 0.374857 0.225657 0.234259
17539 5 0.392649 0.205773 0.189139
14919 6 0.403374 0.175326 0.241641
14995 7 0.424295 0.216031 0.213651
17533 2 0.374323 0.200507 0.19703
15275 9 0.477651 0.216338 0.217077
14909 2 0.478328 0.212977 0.20029
12328 7 0.452789 0.148514 0.223793
14957 7 0.419125 0.177398 0.239366
14956 6 0.43384 0.185345 0.214602
14994 7 0.413629 0.236469 0.217499
12353 7 0.497009 0.198578 0.2415
14916 5 0.495397 0.206057 0.191931
14952 3 0.463695 0.209574 0.247814
14985 4 0.480928 0.238012 0.201714
12352 7 0.489165 0.175775 0.243522
14920 7 0.446278 0.193093 0.212167
15262 9 0.466211 0.193726 0.24807
14910 3 0.478999 0.149148 0.213201
14991 5 0.454917 0.206805 0.196267
14913 5 0.492021 0.146957 0.19353
14958 7 0.394298 0.179824 0.235808
12406 7 0.487799 0.228401 0.245935
14912 5 0.45248 0.147843 0.197215
12291 6 0.440057 0.149515 0.227974
15274 9 0.488622 0.161838 0.212437
14979 1 0.424894 0.235715 0.191112
17468 5 0.395251 0.14162 0.196908
14925 1 0.428388 0.175914 0.19483
12329 7 0.433143 0.134841 0.226232
14921 7 0.439508 0.177267 0.221178
14947 3 0.466491 0.155321 0.246957
15261 9 0.455509 0.157616 0.241073
15027 6 0.420898 0.230866 0.211348
14915 3 0.479276 0.204456 0.211789
17618 7 0.266119 0.250167 0.223902
9776 7 0.488948 0.249844 0.217766
2065 6 0.00280181 0.210622 0.154378
20008 7 0.194204 0.010798 0.242701
25231 3 0.0618909 0.0873723 0.248558
22919 9 0.176284 0.100598 0.250672
9739 6 0.494353 0.249307 0.225087
22679 3 0.161477 0.143568 0.250496
25346 7 0.0130162 0.250721 0.217742
17581 7 0.282513 0.249487 0.239493
25178 3 0.0237115 0.0594365 0.304833
25245 3 0.0229379 0.109968 0.304822
25251 5 0.0093785 0.0509792 0.285272
25246 4 0.0278011 0.0846917 0.289504
25243 2 0.0291416 0.109793 0.292653
25224 1 0.083136 0.0868077 0.288701
25179 5 0.052566 0.052154 0.28994
25173 2 0.0290375 0.0601804 0.292352
25170 1 0.076331 0.0245327 0.288917
25232 5 0.073761 0.0860242 0.268367
25230 5 0.0730628 0.0249144 0.269987
22671 1 0.10438 0.0568023 0.267761
25171 1 0.00859301 0.0526093 0.263653
25229 5 0.0351011 0.0230866 0.262318
25306 5 0.0317945 0.0829749 0.262939
25226 2 0.0544668 0.0923321 0.260506
25225 2 0.0597027 0.0166366 0.260559
25496 9 0.0119353 0.0498937 0.306298
25288 6 0.0902795 0.0861485 0.308758
22619 1 0.107354 0.118821 0.266473
25300 4 0.0536143 0.117755 0.26058
25248 5 0.0527222 0.120088 0.291504
22699 5 0.109339 0.115801 0.288751
22624 5 0.110475 0.0555036 0.288044
25247 5 0.0110706 0.120202 0.285902
25218 6 0.0787507 0.0239317 0.308807
25497 9 0.0191888 0.0953235 0.306781
22626 3 0.123287 0.12327 0.307711
25257 7 0.104389 0.0762702 0.309792
25183 7 0.0935628 0.0236213 0.312395
25294 1 0.00219568 0.116612 0.26496
22944 9 0.113557 0.111436 0.308888
22622 3 0.125121 0.0577213 0.308284
14206 7 0.412211 0.00486325 0.399682
14624 9 0.496845 0.189347 0.422046
22623 4 0.127082 0.0226899 0.298249
22681 5 0.135161 0.0249735 0.264469
22620 2 0.128075 0.0488679 0.2962
19999 4 0.225011 0.0469728 0.304191
19993 2 0.230121 0.0638421 0.295346
20068 2 0.230223 0.11377 0.297666
20071 4 0.226625 0.0882473 0.297967
22625 5 0.151849 0.0541581 0.292383
22627 5 0.151103 0.114653 0.291965
22618 1 0.177255 0.0874847 0.290164
20076 5 0.213816 0.0592774 0.286365
22600 1 0.183831 0.0277192 0.291245
22609 5 0.174798 0.0334588 0.271579
22678 5 0.175138 0.0914889 0.270048
19990 1 0.208969 0.0590186 0.267467
22677 5 0.133466 0.0924041 0.26646
20129 5 0.233566 0.0864796 0.266604
20053 5 0.232384 0.023266 0.262139
22602 2 0.157751 0.0349018 0.262697
22673 2 0.155858 0.0848533 0.262691
22676 4 0.155493 0.0594231 0.259336
20119 1 0.205018 0.122083 0.268871
20072 5 0.212561 0.12257 0.289446
22665 6 0.186222 0.0748066 0.308928
19992 8 0.22161 0.021618 0.311628
19998 3 0.190032 0.0216091 0.310477
19994 5 0.227952 0.00195695 0.301702
22608 3 0.167481 0.0216567 0.253017
1860 9 -0.000511331 0.129749 0.418939
22943 9 0.13962 0.0595687 0.311332
22634 7 0.200114 0.0664429 0.310373
20070 3 0.227185 0.126957 0.308286
22675 3 0.16111 0.095669 0.25187
22621 2 0.129211 0.12492 0.295277
24877 7 0.00246398 0.0911739 0.489821
20000 5 0.253846 0.0619689 0.291337
17448 5 0.351098 0.120309 0.287284
17440 8 0.318938 0.0884856 0.308695
17446 3 0.287543 0.0865643 0.309261
17442 5 0.32501 0.0655006 0.30047
17447 4 0.321356 0.110772 0.29994
17443 4 0.334834 0.026305 0.294836
17439 2 0.331934 0.0514293 0.291546
20048 1 0.283004 0.0886366 0.289989
19989 1 0.280103 0.0265514 0.28723
17445 5 0.354638 0.061627 0.28983
17444 5 0.313934 0.0552687 0.283384
20057 5 0.274686 0.0869925 0.270336
17495 1 0.304541 0.0569592 0.26612
17506 5 0.336113 0.0283298 0.264706
20054 5 0.273 0.0265527 0.267657
17438 1 0.307761 0.119386 0.26387
17501 5 0.332969 0.0898157 0.261561
17421 2 0.358412 0.0325849 0.259434
20050 2 0.255983 0.0948876 0.262963
20049 2 0.255992 0.0190788 0.259195
17497 2 0.356335 0.083011 0.257428
20040 6 0.282902 0.0374618 0.307466
17500 4 0.358329 0.0567807 0.255045
20073 5 0.253745 0.118981 0.293806
20124 4 0.256889 0.120369 0.264199
20004 7 0.281641 0.0534479 0.309155
17524 5 0.310994 0.12208 0.281469
17502 5 0.371773 0.0893872 0.266154
14331 5 0.485857 0.207536 0.46776
20005 7 0.267825 0.0321503 0.30979
17369 2 0.33174 0.00141128 0.293806
20056 3 0.26064 0.0912762 0.250584
17441 2 0.327802 0.125871 0.290422
17427 4 0.355165 0.0142931 0.251238
11728 6 0.498595 0.0782117 0.413738
17428 5 0.376546 0.0267483 0.267061
17437 1 0.377976 0.0902702 0.284345
14875 4 0.454544 0.0771017 0.249817
14822 3 0.418546 0.0574143 0.304284
14891 4 0.427424 0.0875834 0.29153
14817 2 0.42768 0.0626793 0.292537
14887 2 0.430533 0.112426 0.289425
14823 5 0.452031 0.0548949 0.29116
17418 1 0.383324 0.0233721 0.287514
14893 5 0.453551 0.11872 0.286034
14897 5 0.411955 0.0549222 0.284038
14892 5 0.412555 0.11784 0.281194
14866 1 0.483272 0.0869753 0.287029
14814 1 0.475476 0.024924 0.288808
14873 5 0.471178 0.0237584 0.26923
14876 5 0.475594 0.0856743 0.267543
14815 1 0.407817 0.058149 0.264911
14943 1 0.40448 0.118688 0.261899
14954 5 0.435168 0.0877844 0.263809
17412 6 0.388016 0.022318 0.307374
14869 2 0.458302 0.0931994 0.259113
14872 5 0.432636 0.0153064 0.2661
14867 2 0.4554 0.0154234 0.260997
14948 4 0.459729 0.118666 0.256383
14860 6 0.485911 0.0878352 0.307377
17380 7 0.401094 0.0118399 0.308326
14870 5 0.452276 0.0316207 0.252363
15286 9 0.427706 0.0625339 0.309948
17379 7 0.395616 0.0368429 0.307586
14329 4 0.461034 0.176254 0.472493
25255 7 0.0978368 0.140393 0.310149
25296 2 0.0558589 0.142423 0.26139
25241 1 0.0760607 0.151225 0.288774
25249 3 0.0201698 0.180319 0.304112
25360 6 0.0835576 0.206246 0.306938
25320 4 0.0253896 0.214483 0.29295
25317 2 0.0290484 0.239252 0.292044
25295 1 0.0798967 0.212176 0.286504
25250 5 0.05057 0.18022 0.291019
25244 2 0.0273851 0.189451 0.292672
25325 5 0.0119447 0.180673 0.283922
25302 5 0.0748308 0.149311 0.268556
25305 5 0.0724801 0.210944 0.267308
22742 1 0.102815 0.180645 0.266276
25301 5 0.0323822 0.149267 0.265535
25242 1 0.00868747 0.182604 0.263914
25376 5 0.0310315 0.212488 0.262147
25298 2 0.0544264 0.218608 0.259329
25289 6 0.0849128 0.150096 0.308594
25498 9 0.0171218 0.19308 0.30848
25371 4 0.059178 0.243426 0.257309
22690 1 0.107284 0.242794 0.263459
22695 5 0.112521 0.18316 0.28574
22773 5 0.110122 0.242389 0.283807
25322 5 0.051025 0.244863 0.287448
25321 5 0.0104069 0.248901 0.285566
25299 5 0.0546096 0.156112 0.251131
25499 9 0.0266107 0.235321 0.308897
25330 7 0.0999832 0.202618 0.306735
22697 3 0.125904 0.240463 0.303117
22693 3 0.120484 0.179566 0.304465
25366 1 0.00190961 0.247226 0.264273
22945 9 0.109883 0.168021 0.306765
25331 7 0.0760779 0.191728 0.308199
25319 3 0.0311073 0.246985 0.304024
14223 7 0.483779 0.00546593 0.327424
22694 4 0.13108 0.148999 0.291518
22691 2 0.130384 0.174321 0.293237
22748 4 0.154996 0.18186 0.257863
22674 2 0.156004 0.156602 0.260727
22754 5 0.132631 0.148695 0.263723
20202 5 0.230811 0.214946 0.261049
22672 1 0.18273 0.151242 0.28918
20142 4 0.23012 0.212681 0.29163
20147 5 0.211164 0.177916 0.289261
22696 5 0.153583 0.183941 0.291324
20074 3 0.234601 0.184797 0.305946
20069 2 0.231647 0.188257 0.293938
22689 1 0.178031 0.213063 0.287223
20392 9 0.231108 0.19802 0.310289
20139 2 0.229894 0.23795 0.291177
20067 1 0.208165 0.182014 0.266793
22680 5 0.173083 0.151359 0.269111
22750 5 0.173073 0.211577 0.268308
22749 5 0.132696 0.210391 0.265821
20125 5 0.234721 0.153105 0.264468
22744 2 0.154801 0.206292 0.260683
22737 6 0.180085 0.207617 0.306978
22736 6 0.189565 0.156505 0.309365
22698 5 0.152443 0.243806 0.287577
20190 1 0.201204 0.245095 0.263326
20143 5 0.211493 0.245299 0.283405
20393 9 0.222489 0.233047 0.307421
20141 3 0.224802 0.245991 0.302706
22705 7 0.200035 0.166855 0.30698
22704 7 0.199378 0.146167 0.312971
22747 5 0.153687 0.219971 0.250787
22702 7 0.172067 0.202358 0.313197
17160 9 0.332192 0.00425828 0.330252
20075 5 0.253849 0.177866 0.289326
20144 5 0.252631 0.246607 0.288248
20082 7 0.25891 0.164353 0.307678
17572 4 0.358076 0.182351 0.25556
20126 5 0.27972 0.152444 0.264372
20066 1 0.276872 0.150188 0.287088
17516 2 0.328912 0.175606 0.293436
17518 3 0.331422 0.184872 0.305132
20114 6 0.283902 0.217104 0.305441
17519 4 0.325981 0.150411 0.293826
17521 5 0.351309 0.178076 0.288326
20120 1 0.282894 0.21338 0.285028
17520 5 0.310171 0.184649 0.286349
17595 5 0.30957 0.242895 0.285457
17567 1 0.3044 0.182234 0.264629
20128 5 0.270385 0.210781 0.267258
17577 5 0.332909 0.152903 0.261102
17573 5 0.331603 0.214922 0.26022
17498 2 0.356344 0.156969 0.256942
20121 2 0.256744 0.14452 0.260393
17569 2 0.354388 0.207051 0.257612
20122 2 0.254108 0.220064 0.25836
20196 4 0.257318 0.244681 0.258892
20113 6 0.269754 0.151596 0.307826
17523 5 0.35264 0.240594 0.287806
17515 1 0.307092 0.245692 0.263493
17522 3 0.3262 0.247318 0.303421
17839 9 0.327261 0.199834 0.305145
20079 7 0.297363 0.224862 0.305665
20081 7 0.258824 0.139075 0.307119
17574 5 0.37077 0.214036 0.266359
17505 5 0.374799 0.149141 0.264594
15305 9 0.373143 0.152639 0.31113
17514 1 0.376415 0.211372 0.285854
14890 5 0.42171 0.129124 0.297738
17561 6 0.387892 0.212073 0.305003
15020 4 0.459553 0.242346 0.260204
14945 2 0.457252 0.143392 0.257237
14886 1 0.406638 0.181463 0.261541
14894 3 0.384415 0.149785 0.305
14972 5 0.413511 0.183715 0.279641
14896 5 0.453479 0.181364 0.286566
14888 8 0.414808 0.151264 0.306103
12342 3 0.485087 0.21521 0.306544
14895 4 0.422217 0.172633 0.297812
14964 2 0.429289 0.237267 0.292791
14967 4 0.426427 0.212681 0.291459
14889 2 0.429567 0.187687 0.288967
17496 1 0.383278 0.151381 0.285364
14944 1 0.48451 0.213472 0.287553
14885 1 0.478754 0.151311 0.285489
14953 5 0.47541 0.209308 0.267158
14936 6 0.478322 0.153125 0.303977
14950 5 0.473965 0.151409 0.266107
15025 5 0.433401 0.211904 0.261577
14949 5 0.433271 0.152631 0.25979
14946 2 0.45743 0.217952 0.259458
15015 1 0.403964 0.242275 0.264725
14969 5 0.45317 0.244396 0.29077
14968 5 0.410138 0.247434 0.286023
14966 3 0.427868 0.242036 0.305123
14901 7 0.484546 0.166519 0.306807
17529 7 0.401396 0.219573 0.304743
14900 7 0.467782 0.151074 0.309906
12753 9 0.475427 0.222219 0.31336
25256 7 0.0802272 0.0786096 0.313112
14335 6 0.492048 0.216054 0.333614
24544 6 0.0894588 0.031638 0.334035
24654 7 0.108135 0.0910468 0.333352
24655 7 0.0910725 0.0781735 0.326192
24614 6 0.0953337 0.0800946 0.333759
24820 9 0.0385962 0.0478041 0.335428
24550 1 0.0863291 0.0840538 0.354079
24571 2 0.0322338 0.0601934 0.350961
24576 3 0.0258538 0.0482869 0.339984
24577 5 0.0555895 0.051036 0.354598
24639 2 0.0322696 0.110546 0.351356
24643 4 0.0327071 0.0850989 0.349179
24644 5 0.0164085 0.116084 0.360085
24645 5 0.0559328 0.119182 0.353311
24649 5 0.016243 0.0551997 0.359717
24568 1 0.0826102 0.0239401 0.353507
22022 5 0.115911 0.0561992 0.354603
22097 5 0.117857 0.118268 0.355678
24582 7 0.0791896 0.0352832 0.328343
24581 7 0.101391 0.0415199 0.332324
25186 7 0.0564731 0.0647365 0.327766
25217 6 0.0581939 0.0597364 0.320875
25185 7 0.0438407 0.0607052 0.317771
22267 9 0.121001 0.065471 0.335121
25184 7 0.0699107 0.0319012 0.314376
18840 7 0.231889 0.155828 0.500859
24642 5 0.02749 0.125399 0.342024
24557 5 0.0843472 0.0251178 0.375119
22017 1 0.116803 0.117958 0.373775
24560 5 0.0811661 0.0881834 0.374105
20391 9 0.228251 0.117246 0.31427
20409 9 0.179734 0.0227537 0.317327
22024 3 0.128615 0.11377 0.335877
22032 7 0.171665 0.0459414 0.33691
22633 7 0.181383 0.0775164 0.315868
22020 3 0.132129 0.0526192 0.335415
22021 4 0.137266 0.0237131 0.349692
20065 6 0.244657 0.0242261 0.322667
22631 7 0.162943 0.0980648 0.333488
22632 7 0.162454 0.0731592 0.333336
19714 9 0.227558 0.0749151 0.331335
22666 6 0.173007 0.0856272 0.33138
19468 3 0.228824 0.112294 0.335597
19398 3 0.225909 0.0602646 0.335037
19466 2 0.235153 0.11173 0.347685
19469 4 0.234503 0.0856045 0.349882
19393 2 0.233595 0.0617928 0.346783
19474 5 0.215917 0.0524476 0.354549