ITEM: TIMESTEP
664000
ITEM: NUMBER OF ATOMS
25520
ITEM: BOX BOUNDS pp pp pp
-3.9012686091974413e-01 6.0088670450921633e+01
-1.9457788802648275e+00 5.9116064154263292e+01
-1.2646829523320328e+01 1.1192256192933057e+02
ITEM: ATOMS id type xs ys zs
25182 6 0.0860851 0.0218318 0.155825
25252 6 0.105476 0.0806379 0.153823
25214 3 0.0386187 0.0431955 0.160439
25287 5 0.0310928 0.0542013 0.178931
25283 5 0.0727212 0.115694 0.171515
25282 5 0.0319985 0.115626 0.177343
25281 4 0.0483111 0.0836231 0.16639
25277 2 0.0491598 0.108774 0.168503
25215 5 0.0705151 0.0509889 0.172992
25209 2 0.0470005 0.0583415 0.169889
25188 1 0.10123 0.0833168 0.174171
25458 9 0.0289046 0.0517816 0.155405
25206 1 0.0937198 0.0225182 0.175937
14952 3 0.469511 0.21276 0.248135
25293 7 0.0943809 0.0758919 0.149426
25457 9 0.0407951 0.00926605 0.160026
25220 7 0.080425 0.00887617 0.151777
25219 7 0.0735718 0.031226 0.156359
25292 7 0.116469 0.068093 0.153192
22735 5 0.1326 0.11905 0.175104
22660 5 0.131242 0.0520885 0.175184
22905 9 0.144995 0.0415126 0.151239
22662 3 0.144411 0.116379 0.155686
22658 3 0.14277 0.0530022 0.156559
22656 2 0.150029 0.0451934 0.167878
20112 5 0.229596 0.0550962 0.176257
22663 5 0.172 0.116471 0.171107
22654 1 0.195531 0.0869662 0.172801
22661 5 0.174236 0.0520407 0.171105
22659 4 0.151418 0.0195023 0.167348
22563 1 0.201532 0.0221749 0.176004
22629 6 0.210128 0.0210898 0.155328
22630 6 0.204699 0.0744098 0.15444
22667 7 0.220525 0.0718489 0.155498
22668 7 0.199388 0.0608332 0.153485
20108 5 0.227915 0.118146 0.17438
22906 9 0.134439 0.104182 0.15581
20106 3 0.243308 0.123558 0.155771
20036 3 0.24746 0.0492417 0.157699
22670 7 0.221428 0.0313842 0.153313
22669 7 0.219052 0.007547 0.155021
20107 4 0.24405 0.0863012 0.165483
20104 2 0.247528 0.111387 0.166552
20031 2 0.247867 0.0619883 0.168364
20352 9 0.257689 0.056267 0.152077
22517 7 0.277866 0.08185 0.144111
20118 7 0.324771 0.072736 0.153947
20117 7 0.3245 0.0980621 0.153053
20077 6 0.313957 0.0855413 0.154501
17480 3 0.346679 0.0541198 0.158435
17799 9 0.358627 0.0635431 0.156627
17478 2 0.350148 0.0459908 0.170251
20109 5 0.271008 0.116261 0.16984
17482 5 0.331583 0.0541921 0.177495
20037 5 0.270984 0.0572996 0.172386
20011 1 0.299724 0.0861918 0.174502
20028 1 0.29713 0.0235637 0.174306
17481 4 0.350709 0.02011 0.170009
17484 3 0.341713 0.124557 0.156005
20003 6 0.299704 0.0290473 0.154346
20042 7 0.287774 0.0366611 0.150809
17560 5 0.327672 0.116587 0.175728
20041 7 0.311997 0.0389635 0.152403
22482 6 0.279541 0.06675 0.143813
22518 7 0.294261 0.0646597 0.146827
17483 5 0.372536 0.0550795 0.173828
17485 5 0.3697 0.115776 0.171997
14848 1 0.494402 0.0245731 0.176874
17490 7 0.39605 0.105942 0.152349
17489 7 0.417848 0.0969135 0.157152
17451 6 0.402762 0.092542 0.154879
14856 3 0.441537 0.0503088 0.159868
15246 9 0.439911 0.0612294 0.154142
14929 4 0.444365 0.0882961 0.168703
14926 2 0.448649 0.113851 0.168355
14851 2 0.447463 0.0635727 0.170465
14931 5 0.472316 0.11859 0.171676
14857 5 0.472126 0.0605708 0.173426
17476 1 0.395672 0.0871747 0.175825
14934 5 0.430517 0.0562052 0.178996
14930 5 0.430694 0.120758 0.176475
17384 1 0.40097 0.0219787 0.177071
17450 6 0.409305 0.0189715 0.157152
17492 7 0.416173 0.0339331 0.15695
14862 7 0.478546 0.0072642 0.155281
17491 7 0.422656 0.00892825 0.157636
14826 6 0.490987 0.0161924 0.157187
25280 5 0.0427973 0.12622 0.160132
25284 3 0.00517363 0.152565 0.160081
2104 7 0.00497545 0.218469 0.152332
25290 7 0.122405 0.152241 0.156426
2033 7 0.0524847 0.142267 0.136064
25253 6 0.106649 0.15106 0.154887
2032 7 0.0475568 0.168611 0.13725
1995 6 0.0408008 0.152552 0.139448
25275 1 0.0958181 0.14892 0.175137
25278 8 0.0337262 0.1513 0.154705
22957 9 0.0965761 0.232778 0.155283
22732 3 0.105052 0.218148 0.157175
25285 4 0.0430369 0.17421 0.162558
25359 5 0.0317057 0.183053 0.179797
25356 5 0.0747426 0.241496 0.174705
25354 4 0.0497835 0.212673 0.168367
25351 2 0.0510879 0.237664 0.170705
25286 5 0.072623 0.179494 0.174152
25279 2 0.0494027 0.18809 0.171571
25259 1 0.102 0.213335 0.176298
25355 5 0.0340874 0.245873 0.178729
25394 6 0.065737 0.199615 0.144215
25291 7 0.105369 0.161513 0.148995
25432 7 0.0595951 0.205036 0.150629
25433 7 0.0809505 0.199569 0.145566
1933 1 0.00248105 0.149317 0.178263
2103 7 0.022809 0.206435 0.158353
2065 6 0.00776845 0.211513 0.159257
22657 2 0.149355 0.125446 0.167044
22741 7 0.205934 0.156158 0.144646
1962 7 0.15896 0.210463 0.137444
22740 7 0.210285 0.136756 0.150205
22726 8 0.135851 0.215195 0.154853
1963 7 0.14688 0.233436 0.13691
1927 6 0.143962 0.218519 0.139684
22730 5 0.130333 0.178563 0.179272
22700 6 0.204479 0.150642 0.152203
22636 1 0.201205 0.150654 0.172984
22729 4 0.149612 0.150724 0.1682
22733 4 0.142419 0.237648 0.163265
20189 7 0.196886 0.232229 0.151588
20148 6 0.202466 0.21843 0.154227
22728 5 0.143068 0.191094 0.161891
22725 2 0.147805 0.175132 0.170719
20178 5 0.231276 0.240124 0.176484
20183 5 0.230425 0.180856 0.17447
22723 1 0.194759 0.212736 0.174022
22731 5 0.170819 0.181416 0.17339
22807 5 0.131345 0.246236 0.18044
20188 7 0.219899 0.217225 0.153668
22734 5 0.172182 0.247181 0.174963
20177 4 0.244413 0.212313 0.16365
20354 9 0.230421 0.169729 0.15523
20353 9 0.249124 0.138861 0.155842
20110 3 0.24673 0.171936 0.156701
20105 2 0.248991 0.187561 0.166616
17479 2 0.346918 0.125204 0.168637
20173 2 0.247038 0.237489 0.16708
17800 9 0.343001 0.138649 0.153258
17555 4 0.346021 0.14983 0.171296
20102 1 0.294781 0.149203 0.172629
17554 3 0.347635 0.17039 0.154975
17801 9 0.361955 0.176182 0.152106
17558 3 0.334174 0.234354 0.160319
17552 2 0.347378 0.174589 0.167407
17556 5 0.326236 0.183433 0.172307
20111 5 0.270844 0.180412 0.171572
20084 1 0.299074 0.213849 0.17269
20179 5 0.271276 0.240718 0.170226
17631 5 0.333948 0.243043 0.17923
17802 9 0.344244 0.228626 0.155642
17559 5 0.3712 0.2428 0.171004
17557 5 0.371341 0.180939 0.170285
17553 2 0.3471 0.248204 0.169024
15247 9 0.445659 0.13861 0.156608
14928 3 0.442659 0.1228 0.156961
14924 1 0.495759 0.148267 0.175428
17566 7 0.390604 0.148507 0.151451
14939 7 0.483022 0.153232 0.15315
17565 7 0.413307 0.140005 0.149807
17563 7 0.406503 0.219278 0.146292
17564 7 0.420191 0.207256 0.153847
14938 7 0.480523 0.21735 0.147682
14937 7 0.460683 0.200998 0.148229
17525 6 0.405215 0.150965 0.154418
17459 1 0.399548 0.14788 0.174804
17526 6 0.404513 0.20872 0.1518
14899 6 0.468699 0.210652 0.143088
15248 9 0.432338 0.167686 0.155854
15002 3 0.445927 0.240716 0.154276
14932 3 0.447815 0.170397 0.157042
15000 2 0.449383 0.234052 0.166207
15003 4 0.446952 0.209023 0.165401
14927 2 0.449614 0.184269 0.167792
15005 5 0.472647 0.240995 0.170054
14933 5 0.473556 0.178845 0.1717
15004 5 0.432409 0.24178 0.174225
17550 1 0.397725 0.210147 0.172008
15008 5 0.433199 0.178474 0.176752
15249 9 0.45282 0.229355 0.149516
14940 7 0.481234 0.130322 0.156617
14898 6 0.492173 0.140417 0.154825
25236 7 0.00400098 0.0431104 0.239912
25471 9 0.069368 0.0149731 0.243927
25198 5 0.0944308 0.0867263 0.192068
25195 5 0.0905831 0.0188355 0.194634
25268 5 0.0539297 0.0860956 0.196384
25258 1 0.0261654 0.116221 0.197074
25207 1 0.0274508 0.0545884 0.197219
25191 2 0.0770162 0.0928953 0.200016
25263 4 0.0785597 0.117458 0.202358
25197 4 0.0764301 0.0782226 0.21015
25192 5 0.0705018 0.0326895 0.211157
25196 3 0.0325061 0.0625587 0.216208
25190 8 0.063087 0.0569764 0.218102
25510 9 0.0236799 0.0672507 0.223117
25517 7 0.066542 0.0709872 0.238016
25240 6 0.0740815 0.0588769 0.232882
22685 7 0.07919 0.100766 0.22054
25506 7 0.076988 0.0461389 0.23842
22649 6 0.0846623 0.110578 0.226674
25194 5 0.0502321 0.0162868 0.198309
25189 2 0.0735382 0.0143437 0.202884
25308 6 0.0212903 0.117232 0.217729
25472 9 0.0552339 0.100517 0.24499
25272 7 0.0322177 0.114056 0.223313
25201 6 0.00547649 0.0577663 0.243453
25205 7 0.00619367 0.00455062 0.220152
22687 7 0.118894 0.064248 0.243756
25343 6 0.00148407 0.244802 0.244475
25271 7 0.0114917 0.104288 0.219262
22684 7 0.0716889 0.108851 0.230937
22651 7 0.106543 0.0674674 0.218233
14995 7 0.417618 0.245981 0.221175
25231 3 0.0629551 0.088147 0.250078
25202 7 0.0764156 0.0026532 0.224719
22958 9 0.117513 0.119813 0.216903
25238 7 0.019643 0.0105322 0.249087
22686 7 0.0948545 0.0706071 0.246301
22635 1 0.121794 0.052978 0.195471
14909 2 0.478327 0.21501 0.201726
25270 6 0.0446379 0.119404 0.238081
22760 7 0.0989222 0.121648 0.240287
25309 7 0.0289038 0.118761 0.23975
22648 6 0.107016 0.061221 0.248919
25227 3 0.0670357 0.0264032 0.249262
25200 6 0.00654537 0.00290571 0.24583
20008 7 0.199442 0.00104577 0.241337
22683 6 0.120095 0.0586043 0.216099
20096 6 0.207267 0.0657253 0.247492
22650 7 0.13033 0.0589825 0.222466
22643 5 0.19147 0.0848989 0.191611
22655 1 0.128381 0.116948 0.193707
20062 7 0.155721 0.0663992 0.243478
20023 6 0.150903 0.0647563 0.23647
20134 7 0.216429 0.0774861 0.244332
20061 7 0.162919 0.0651175 0.2317
22572 5 0.194272 0.0224122 0.19547
20083 1 0.220862 0.117267 0.195675
20029 1 0.226724 0.0554544 0.196786
22642 5 0.150478 0.0773439 0.194247
20063 7 0.188955 0.0590106 0.2189
22637 2 0.173444 0.078642 0.199619
22641 4 0.176888 0.0544943 0.203772
22565 2 0.175365 0.0292753 0.203439
22640 5 0.170164 0.0958908 0.208706
20060 6 0.234528 0.0577433 0.217478
20022 6 0.191851 0.0679945 0.225394
20064 7 0.187316 0.0835116 0.222525
22647 5 0.152584 0.0216198 0.19913
22571 3 0.177801 0.0213659 0.215105
22638 8 0.161119 0.117353 0.21682
22644 3 0.131298 0.119778 0.212258
22965 7 0.163297 0.100272 0.23632
22577 7 0.145668 0.0361997 0.234529
20025 7 0.23802 0.0437113 0.221026
22688 6 0.172172 0.111089 0.230861
22612 6 0.147931 0.0205506 0.233073
22576 7 0.158922 0.0191144 0.227492
20024 7 0.223053 0.0644894 0.2222
22931 9 0.190247 0.0125177 0.216562
20130 6 0.237957 0.092614 0.236751
17471 6 0.217832 0.0257068 0.235268
17510 7 0.210496 0.0396748 0.236759
17509 7 0.229409 0.0247435 0.24084
20133 7 0.215903 0.116605 0.243349
20131 6 0.221979 0.123145 0.216444
20099 7 0.206568 0.129297 0.217725
20135 7 0.196135 0.0653673 0.241615
20098 7 0.229267 0.126299 0.223329
22613 7 0.131714 0.00391114 0.242114
22918 9 0.160396 0.0214094 0.248421
20100 7 0.240851 0.0846756 0.229637
22954 7 0.173669 0.12362 0.236784
20097 6 0.208288 0.126217 0.248841
20046 7 0.217319 0.00356416 0.225374
12406 7 0.497876 0.237767 0.242556
20101 7 0.247332 0.105821 0.235303
17512 7 0.272037 0.000584204 0.237921
17511 7 0.275785 0.00471627 0.226849
20095 5 0.250837 0.0866032 0.199002
20016 5 0.252834 0.0257625 0.199504
17456 7 0.308833 0.0415239 0.241496
20020 5 0.294051 0.0835265 0.196468
20017 5 0.294041 0.0253111 0.194334
17477 1 0.327052 0.11995 0.197493
17458 1 0.323311 0.057968 0.196435
17464 5 0.351498 0.0908495 0.200531
20013 2 0.274249 0.0924634 0.203425
20379 9 0.259888 0.0810514 0.217298
20089 4 0.277314 0.118711 0.204856
20019 3 0.274419 0.0815537 0.21508
20378 9 0.274388 0.0418927 0.214338
17466 6 0.326585 0.0500709 0.217176
17493 7 0.34273 0.0511298 0.217919
17494 7 0.324199 0.0352374 0.219112
14960 7 0.35188 0.0967039 0.229115
14918 6 0.33676 0.0936172 0.23147
14959 7 0.332757 0.0823715 0.226657
17469 5 0.353687 0.0254901 0.200685
20014 3 0.28133 0.0276496 0.213803
20012 2 0.276546 0.018209 0.202242
17503 6 0.311194 0.0551099 0.245183
17499 3 0.361088 0.0888686 0.248077
17457 7 0.320043 0.063407 0.239914
17583 7 0.319263 0.115776 0.241159
17813 9 0.348234 0.0861137 0.24391
14846 7 0.367821 0.0587842 0.237414
14847 7 0.375351 0.0638138 0.226618
17860 7 0.36685 0.012797 0.229717
14908 2 0.475176 0.143831 0.203705
17473 7 0.31664 0.11636 0.222847
12328 7 0.452837 0.158933 0.225408
17544 6 0.315097 0.125873 0.247098
20365 9 0.264262 0.0422976 0.247371
17460 2 0.374571 0.0839898 0.205017
17463 4 0.37506 0.0589514 0.205272
20051 3 0.258388 0.0276544 0.247224
17548 7 0.260062 0.125845 0.221658
17578 6 0.261918 0.127894 0.229308
17549 7 0.277671 0.127347 0.229124
17825 9 0.383352 0.0336451 0.220579
20366 9 0.254374 0.0811072 0.24672
15261 9 0.445533 0.150849 0.24284
12290 6 0.473236 0.00338487 0.231972
14878 6 0.371827 0.0512655 0.231084
17386 2 0.37663 0.034127 0.2039
17462 3 0.376584 0.0932185 0.216908
17826 9 0.374191 0.10865 0.216739
17391 3 0.386079 0.0245039 0.214734
15272 9 0.481425 0.0244957 0.220822
14840 5 0.495295 0.0864723 0.197223
17465 5 0.392004 0.0895754 0.196556
14906 1 0.423116 0.11771 0.197112
17392 5 0.394102 0.0297651 0.195055
14849 1 0.426723 0.0564881 0.198403
14917 5 0.45354 0.0847035 0.199262
14837 5 0.451887 0.0226689 0.200641
14911 4 0.476243 0.118938 0.204325
14834 2 0.475468 0.093916 0.203654
14839 3 0.476078 0.0862025 0.215526
14955 6 0.41985 0.0632549 0.217956
15273 9 0.468004 0.0958815 0.220512
14922 7 0.404552 0.0708728 0.218136
14923 7 0.420036 0.0557422 0.225362
15308 7 0.472139 0.0696872 0.229514
14884 6 0.463361 0.0540036 0.230833
15297 7 0.45625 0.0520386 0.22328
15303 9 0.403571 0.0549898 0.242491
14868 8 0.446043 0.0525716 0.243957
14835 3 0.487003 0.0302506 0.214029
14874 3 0.416239 0.0487152 0.247456
14833 2 0.475477 0.0173067 0.204637
14838 5 0.491668 0.0213741 0.195221
14941 7 0.434122 0.1149 0.224333
12366 6 0.460966 0.105819 0.234709
12408 7 0.463766 0.0947893 0.240478
14905 7 0.382436 0.110249 0.245948
14951 6 0.397235 0.117848 0.246358
12407 7 0.460699 0.120122 0.23812
14914 6 0.425174 0.115502 0.217624
14942 7 0.4101 0.117688 0.220272
14844 7 0.406921 0.00501665 0.219288
22717 6 0.106988 0.123253 0.246981
25512 9 0.00158569 0.172359 0.241109
25310 7 0.0499381 0.131938 0.242485
25345 7 0.00551431 0.234815 0.220305
25484 9 0.0825059 0.13429 0.219695
25267 5 0.0967822 0.212828 0.195895
25265 5 0.0947472 0.150476 0.196141
25303 3 0.0140265 0.17778 0.246774
25260 2 0.076769 0.142714 0.203358
25264 5 0.053613 0.151728 0.201514
25332 1 0.024909 0.244477 0.198198
25276 1 0.0311064 0.180522 0.199833
25342 5 0.0540077 0.210964 0.200533
25337 4 0.0780189 0.24553 0.203615
25261 2 0.0771993 0.220115 0.203706
25266 3 0.0847652 0.212494 0.214607
25262 3 0.0812895 0.148141 0.215331
25485 9 0.0927344 0.197548 0.21415
22720 7 0.107893 0.165603 0.216847
25377 6 0.0189932 0.178229 0.219712
25507 7 0.0691507 0.190279 0.227191
25518 7 0.0577426 0.165461 0.224975
25314 6 0.0623806 0.175924 0.23134
25297 8 0.0435994 0.180262 0.243806
22751 3 0.116827 0.248625 0.245893
22758 7 0.113159 0.188102 0.243891
22718 6 0.0984379 0.189794 0.246977
25348 7 0.00531612 0.184973 0.218208
25347 7 0.0151182 0.164139 0.223261
22830 7 0.0719562 0.237546 0.224433
22757 7 0.089268 0.187313 0.240455
22756 6 0.118642 0.177713 0.216073
22796 7 0.107721 0.230177 0.221174
25378 6 0.0190129 0.24592 0.219105
17618 7 0.282 0.2449 0.223784
22706 1 0.125199 0.179744 0.195622
22791 6 0.0652175 0.249827 0.229022
25382 7 0.00727227 0.242459 0.237296
22825 6 0.11826 0.243119 0.220476
22759 7 0.121354 0.123344 0.244049
22719 7 0.123142 0.180051 0.223655
22724 1 0.130391 0.244285 0.200027
20167 7 0.209455 0.225625 0.216495
22646 5 0.194895 0.148726 0.194202
22713 5 0.191813 0.210699 0.193337
20103 1 0.228366 0.180534 0.195334
22716 5 0.15509 0.146451 0.196261
20154 1 0.224554 0.241598 0.195963
22722 7 0.151173 0.172624 0.242171
22645 4 0.178388 0.140107 0.212269
22712 5 0.153551 0.211583 0.200824
22639 2 0.176326 0.152354 0.201887
22708 2 0.176555 0.202181 0.202116
22711 4 0.172566 0.177068 0.203266
22710 3 0.185172 0.209448 0.213154
22932 9 0.182031 0.197414 0.218807
20204 6 0.218323 0.240595 0.216423
20092 3 0.231932 0.177297 0.214241
22721 7 0.14521 0.195335 0.240238
20406 9 0.219233 0.184419 0.218101
22745 8 0.148189 0.244932 0.243787
20166 6 0.184014 0.177353 0.227116
20206 7 0.168801 0.178988 0.230019
22755 6 0.142683 0.181056 0.236965
20205 7 0.181236 0.16787 0.220943
22762 6 0.161966 0.239104 0.230257
20169 7 0.204511 0.174199 0.240674
20203 6 0.21103 0.175052 0.247621
22966 7 0.160642 0.222408 0.227305
20170 7 0.226248 0.171757 0.245799
20208 7 0.218781 0.228847 0.244559
20165 6 0.2059 0.237891 0.246206
20207 7 0.194991 0.234466 0.24096
15275 9 0.49376 0.214344 0.216856
17472 7 0.300098 0.125579 0.215124
20127 3 0.264141 0.211406 0.249412
17854 9 0.325035 0.23895 0.222526
20123 3 0.256561 0.151652 0.247936
17508 6 0.3153 0.127386 0.217068
17571 3 0.353624 0.220208 0.248239
17582 7 0.328534 0.136217 0.248262
20367 9 0.254693 0.139741 0.242785
20090 5 0.251909 0.142575 0.195084
17545 6 0.303045 0.234537 0.247393
17617 7 0.282306 0.221487 0.22098
20164 5 0.254793 0.213064 0.194971
17651 6 0.286208 0.230653 0.227055
20368 9 0.272149 0.222976 0.245652
20091 5 0.293256 0.146611 0.191299
20094 5 0.296319 0.207039 0.194017
17531 1 0.32279 0.179511 0.194209
17551 1 0.327862 0.242761 0.197203
17538 5 0.351708 0.201045 0.194675
17543 5 0.352827 0.149419 0.199548
20085 2 0.275106 0.141427 0.199624
20086 8 0.262111 0.178644 0.216989
20087 2 0.2771 0.216085 0.200411
20159 4 0.279255 0.240429 0.203386
20088 5 0.272184 0.158261 0.208415
20093 4 0.271386 0.201738 0.209634
17547 7 0.309934 0.182763 0.221393
17540 3 0.335849 0.241255 0.216367
17579 6 0.317198 0.175515 0.215704
17546 7 0.317936 0.160804 0.218129
20136 6 0.275965 0.178625 0.231221
20413 7 0.269752 0.189515 0.23701
20402 7 0.275035 0.163451 0.235403
17534 8 0.366788 0.241095 0.217866
14996 7 0.361842 0.192662 0.237074
17581 7 0.299838 0.236173 0.239234
17814 9 0.358232 0.158874 0.24307
15026 6 0.366102 0.184332 0.230997
14997 7 0.353249 0.186247 0.227023
17504 3 0.359776 0.148194 0.248936
17580 7 0.31853 0.23187 0.246609
17536 5 0.373225 0.220573 0.208371
17827 9 0.376567 0.156362 0.220085
14920 7 0.44832 0.193335 0.211358
9776 7 0.466481 0.23144 0.225147
14947 3 0.459609 0.146894 0.246038
14921 7 0.43407 0.184936 0.220937
12291 6 0.437424 0.160702 0.227929
14912 5 0.452931 0.151994 0.199025
15262 9 0.465966 0.221531 0.24224
17584 6 0.379855 0.236944 0.231652
14919 6 0.409241 0.1824 0.243509
15274 9 0.483531 0.166251 0.215753
17850 7 0.376178 0.222622 0.236407
14956 6 0.433233 0.192279 0.213635
17533 2 0.375387 0.203852 0.199859
14910 3 0.476358 0.152282 0.215755
15031 7 0.402643 0.224234 0.24315
17468 5 0.392219 0.145629 0.194874
14958 7 0.39441 0.181188 0.240062
15027 6 0.423931 0.238151 0.215185
14915 3 0.485312 0.204079 0.21225
14992 6 0.410688 0.232224 0.248673
17461 2 0.376227 0.153608 0.203484
14904 7 0.391401 0.132961 0.246384
14913 5 0.493754 0.149924 0.195601
14916 5 0.495343 0.210774 0.19347
14925 1 0.428733 0.178741 0.195585
17537 4 0.379732 0.179147 0.203786
14994 7 0.427262 0.223015 0.217508
9777 7 0.472121 0.249198 0.233185
14957 7 0.419547 0.175659 0.237687
9739 6 0.474937 0.233965 0.231729
12353 7 0.49182 0.194237 0.241546
17467 3 0.381192 0.144749 0.215168
12352 7 0.490936 0.168981 0.24364
17539 5 0.394124 0.209156 0.192406
14991 5 0.455626 0.208711 0.198142
12329 7 0.428819 0.149702 0.223992
14985 4 0.478407 0.241601 0.202592
14979 1 0.424871 0.239077 0.195034
22955 7 0.155691 0.249358 0.223706
25203 7 0.0548414 0.00664975 0.230274
12330 7 0.460922 0.0016004 0.237208
17475 7 0.303834 0.00423248 0.221617
17815 9 0.351409 0.235922 0.249238
25178 3 0.0266022 0.0571605 0.305249
25245 3 0.0205563 0.115297 0.305695
25251 5 0.0120067 0.0529353 0.286001
25246 4 0.0298369 0.0887936 0.291056
25243 2 0.0285407 0.113661 0.293827
25224 1 0.0818758 0.0902431 0.289683
25179 5 0.0522241 0.0543338 0.2905
25173 2 0.0294706 0.0639201 0.293353
25170 1 0.0758304 0.0273968 0.289192
25232 5 0.0752863 0.0880693 0.269983
25230 5 0.0756208 0.0246697 0.270107
22671 1 0.106847 0.0581786 0.269459
25171 1 0.0120345 0.0554271 0.263911
25229 5 0.036657 0.0239664 0.261675
25306 5 0.0345423 0.0848726 0.264151
25226 2 0.0581109 0.0952671 0.26149
25225 2 0.0611118 0.0176903 0.260478
25496 9 0.0159788 0.0458367 0.306246
25288 6 0.082985 0.0912902 0.310815
22619 1 0.10834 0.122084 0.267366
25300 4 0.0559605 0.120001 0.262461
25248 5 0.0516161 0.122434 0.292653
22699 5 0.110129 0.119401 0.289047
22624 5 0.111452 0.0580949 0.289803
25294 1 0.00276028 0.116859 0.265988
25247 5 0.00922698 0.122169 0.287288
25497 9 0.00836218 0.10461 0.306991
25257 7 0.0950817 0.0815491 0.312288
25218 6 0.0668757 0.0238899 0.309347
22622 3 0.121831 0.0640339 0.309487
22623 4 0.127408 0.0268481 0.298519
25183 7 0.0664385 0.00806152 0.309626
11802 6 0.495506 0.213852 0.413677
22681 5 0.135886 0.0245339 0.267259
22620 2 0.129151 0.0532457 0.298293
19999 4 0.222647 0.04698 0.302658
19993 2 0.228646 0.0630563 0.294239
20068 2 0.22992 0.11323 0.295639
20071 4 0.226894 0.0878977 0.297602
22625 5 0.152654 0.0598193 0.29555
22627 5 0.152664 0.120031 0.293722
22618 1 0.175768 0.0895723 0.291566
20076 5 0.212525 0.059004 0.285488
22600 1 0.183918 0.0264373 0.291904
22609 5 0.174986 0.032687 0.273295
22678 5 0.174009 0.0912206 0.270653
19990 1 0.210217 0.0589981 0.267094
22677 5 0.133936 0.0932214 0.267151
20129 5 0.234969 0.0862029 0.265133
20053 5 0.231647 0.023557 0.263473
22602 2 0.158196 0.0352924 0.26429
22673 2 0.156173 0.0850113 0.263015
22676 4 0.154237 0.0590721 0.262095
20119 1 0.204801 0.119951 0.268656
22608 3 0.170052 0.0236172 0.254639
20072 5 0.211389 0.122651 0.288544
22675 3 0.16175 0.0967684 0.252065
19994 5 0.223503 0.00561169 0.299893
22919 9 0.157759 0.112042 0.252424
22545 2 0.128774 0.00408731 0.294423
22665 6 0.176435 0.0942109 0.313105
20070 3 0.226528 0.123628 0.307235
19992 8 0.218465 0.0244146 0.310893
19998 3 0.187859 0.0181874 0.311363
22943 9 0.120996 0.0525729 0.314698
22944 9 0.130778 0.11053 0.309773
20000 5 0.251999 0.0565129 0.289922
17448 5 0.352125 0.119513 0.289971
17440 8 0.313372 0.0882282 0.310766
17446 3 0.282846 0.0865685 0.309725
17442 5 0.321493 0.0667685 0.301722
17447 4 0.319521 0.110342 0.30229
17443 4 0.331884 0.0272384 0.295394
17439 2 0.330032 0.0519505 0.292801
20048 1 0.283889 0.089321 0.289892
19989 1 0.276696 0.0280649 0.287312
17445 5 0.352651 0.0601303 0.289705
17444 5 0.311008 0.054604 0.284439
20057 5 0.274972 0.0896709 0.271433
17495 1 0.303527 0.0557438 0.265948
17506 5 0.333755 0.0229231 0.267239
20054 5 0.272151 0.0255904 0.266831
17438 1 0.311162 0.120588 0.267374
17501 5 0.333185 0.0873121 0.262235
17421 2 0.357032 0.0285705 0.262623
20050 2 0.258572 0.0936905 0.262548
20049 2 0.254326 0.0192026 0.258946
17497 2 0.356291 0.0788974 0.25957
20040 6 0.283351 0.0303772 0.307248
17500 4 0.35609 0.0526073 0.259346
20073 5 0.253998 0.117753 0.292487
20124 4 0.26126 0.117221 0.259183
17427 4 0.353783 0.0142289 0.25307
20056 3 0.26381 0.0773549 0.252818
20004 7 0.296908 0.0288629 0.311406
17524 5 0.312361 0.123754 0.284476
17838 9 0.323006 0.00606201 0.312382
17502 5 0.374422 0.088319 0.267107
17369 2 0.329512 0.00203712 0.2958
20005 7 0.272949 0.0328029 0.313375
17428 5 0.375893 0.0226471 0.269958
17437 1 0.376315 0.0883586 0.287515
14822 3 0.420678 0.0544915 0.305057
14891 4 0.427207 0.0886468 0.294969
14817 2 0.427886 0.0633681 0.294079
14887 2 0.429092 0.112602 0.291202
14823 5 0.452148 0.0555041 0.291182
17418 1 0.382026 0.023797 0.288899
14893 5 0.451785 0.118621 0.287191
14897 5 0.411434 0.0583621 0.285135
14892 5 0.410833 0.117176 0.283063
14866 1 0.482648 0.0888223 0.288847
14814 1 0.475974 0.0253956 0.288637
14873 5 0.47173 0.0206503 0.269339
14876 5 0.47597 0.0845901 0.268672
14815 1 0.408709 0.0526635 0.26582
14943 1 0.40489 0.117222 0.266145
14954 5 0.435309 0.0828896 0.265062
17412 6 0.387475 0.0211625 0.30913
14869 2 0.456733 0.0909701 0.260674
14872 5 0.430607 0.0129808 0.266158
14867 2 0.454943 0.0129562 0.261468
14948 4 0.45837 0.115598 0.259493
14860 6 0.483829 0.0887893 0.309989
17380 7 0.401276 0.0113486 0.309862
17379 7 0.396762 0.0350729 0.309396
14870 5 0.45359 0.0307972 0.253082
14875 4 0.457282 0.0751258 0.251332
15286 9 0.423351 0.0663458 0.310814
25299 5 0.0510043 0.158993 0.253073
25296 2 0.0555795 0.145177 0.263404
25241 1 0.0760721 0.152134 0.290412
25249 3 0.0250383 0.181596 0.306348
25360 6 0.0849312 0.213558 0.307628
25320 4 0.0304928 0.214367 0.295439
25317 2 0.0288316 0.238232 0.292281
25295 1 0.0797714 0.215741 0.287225
25250 5 0.0527215 0.18082 0.291503
25244 2 0.0298701 0.18896 0.294679
25325 5 0.0101939 0.181978 0.28746
25302 5 0.0737456 0.15245 0.271078
25305 5 0.0712836 0.214723 0.267795
22742 1 0.100496 0.18368 0.268071
25301 5 0.0329046 0.152685 0.26779
25242 1 0.00739364 0.181047 0.266346
25376 5 0.0291885 0.22094 0.264603
25298 2 0.052348 0.220989 0.260115
25289 6 0.0865767 0.145913 0.309704
25498 9 0.0319263 0.192461 0.311577
25371 4 0.0578443 0.245542 0.256374
22690 1 0.10692 0.244796 0.263283
22695 5 0.108968 0.187293 0.28915
22773 5 0.112902 0.244212 0.282951
25499 9 0.029048 0.239891 0.309376
25331 7 0.0939837 0.225689 0.309586
22697 3 0.120537 0.242377 0.302439
25304 4 0.0511189 0.204115 0.251137
25330 7 0.0957275 0.20107 0.308092
25366 1 0.000379491 0.244546 0.265065
25254 7 0.0966731 0.133466 0.309303
22693 3 0.120141 0.181731 0.308163
25321 5 0.00860922 0.243721 0.286114
25322 5 0.0512873 0.244142 0.287305
22679 3 0.160737 0.143745 0.251279
22626 3 0.126696 0.125182 0.307931
22945 9 0.115457 0.166582 0.310612
22621 2 0.128914 0.128442 0.295528
22694 4 0.12656 0.153721 0.294175
22747 5 0.155163 0.221401 0.251821
22691 2 0.127225 0.178771 0.295922
22748 4 0.161394 0.181073 0.259839
22674 2 0.156609 0.155944 0.262346
22754 5 0.133136 0.153033 0.265617
20202 5 0.234779 0.211159 0.264691
22672 1 0.181086 0.153773 0.289915
20142 4 0.231533 0.214713 0.29337
20147 5 0.214542 0.181657 0.286976
22696 5 0.152356 0.183728 0.294397
20074 3 0.226787 0.185394 0.306928
20069 2 0.231124 0.189699 0.295478
22689 1 0.179275 0.21384 0.290019
20392 9 0.237184 0.189732 0.312415
20139 2 0.230698 0.239543 0.29367
20067 1 0.211017 0.180197 0.26708
22680 5 0.173756 0.150633 0.270829
22750 5 0.175497 0.213352 0.269383
22749 5 0.132027 0.208947 0.265554
20125 5 0.236748 0.145924 0.264832
22744 2 0.156249 0.205849 0.261773
22737 6 0.185192 0.218703 0.309002
22736 6 0.191185 0.152495 0.309513
22698 5 0.153 0.242445 0.289178
20190 1 0.202466 0.244539 0.266933
20393 9 0.235177 0.234361 0.310653
20143 5 0.212139 0.249048 0.287375
22704 7 0.198629 0.138923 0.311302
20141 3 0.229344 0.245831 0.305438
22702 7 0.201561 0.218247 0.309928
22705 7 0.203359 0.162259 0.309886
22920 9 0.17537 0.13772 0.250831
20132 7 0.21873 0.137841 0.250312
16140 7 0.409375 0.00417674 0.493047
17441 2 0.32798 0.125888 0.293718
20075 5 0.253534 0.183049 0.291581
20144 5 0.252871 0.248566 0.290449
17572 4 0.36347 0.184752 0.257154
20126 5 0.276919 0.15283 0.26689
20066 1 0.279006 0.15086 0.288677
17516 2 0.331373 0.175804 0.295974
17518 3 0.329289 0.185671 0.307442
20114 6 0.291223 0.217361 0.309713
17519 4 0.329656 0.150621 0.297333
17521 5 0.353262 0.181355 0.290616
20120 1 0.282456 0.214459 0.289172
17520 5 0.311126 0.181419 0.289624
17595 5 0.311647 0.244186 0.28784
17567 1 0.305796 0.181974 0.268115
20128 5 0.274245 0.213535 0.270022
17577 5 0.336848 0.155641 0.264722
17573 5 0.334286 0.211167 0.264218
17498 2 0.360125 0.159434 0.260039
20121 2 0.258408 0.142929 0.259582
17569 2 0.35724 0.208955 0.259635
20122 2 0.257565 0.220505 0.261337
20196 4 0.256889 0.245242 0.260718
20113 6 0.273157 0.147161 0.30977
17523 5 0.3535 0.243672 0.290829
17515 1 0.308297 0.244683 0.267078
17522 3 0.328726 0.246344 0.30695
17839 9 0.315522 0.19399 0.30839
20079 7 0.303696 0.226933 0.309037
17530 7 0.359333 0.203086 0.309752
20081 7 0.268749 0.159555 0.313626
17529 7 0.361645 0.227675 0.307234
17561 6 0.370593 0.213863 0.308074
20082 7 0.258813 0.140046 0.309399
17505 5 0.377043 0.151684 0.26802
17574 5 0.37461 0.218033 0.267675
17212 7 0.331815 0.250458 0.41667
14890 5 0.421586 0.127265 0.300202
17514 1 0.378976 0.21318 0.288251
15020 4 0.459783 0.247392 0.25808
14945 2 0.456949 0.140906 0.258022
14886 1 0.41132 0.18031 0.264562
14894 3 0.384548 0.150252 0.307644
14972 5 0.413096 0.187452 0.280753
14896 5 0.451309 0.180057 0.285873
14888 8 0.41556 0.150984 0.30798
12342 3 0.483214 0.209398 0.307191
14895 4 0.421322 0.169096 0.297775
14964 2 0.43004 0.236485 0.295197
14967 4 0.430913 0.210731 0.294123
14889 2 0.429094 0.186861 0.290009
17496 1 0.382159 0.151602 0.288286
14944 1 0.485357 0.214003 0.287342
14885 1 0.475542 0.151017 0.285251
14953 5 0.475541 0.217962 0.267991
14936 6 0.477623 0.14797 0.305809
14950 5 0.475142 0.153117 0.264296
15025 5 0.437364 0.21243 0.261038
14949 5 0.434677 0.149802 0.261932
14946 2 0.459414 0.22231 0.259049
15015 1 0.406368 0.243365 0.267957
14969 5 0.453691 0.244455 0.292345
14900 7 0.466269 0.145889 0.311587
14966 3 0.424726 0.2423 0.306867
14968 5 0.414301 0.245328 0.286847
15030 7 0.424874 0.222484 0.250004
14901 7 0.489707 0.137306 0.307075
25184 7 0.051192 0.0263032 0.307764
25256 7 0.0720212 0.085829 0.316239
24544 6 0.0714999 0.0198743 0.338518
24654 7 0.0899373 0.0793069 0.329428
24655 7 0.068711 0.0738792 0.334386
24614 6 0.083034 0.0782258 0.336396
24820 9 0.0343887 0.068062 0.334657
24550 1 0.0863579 0.0878705 0.356224
24571 2 0.0330665 0.0636153 0.351449
24576 3 0.0299937 0.0562834 0.339724
24577 5 0.056614 0.0553671 0.354702
24639 2 0.033764 0.113496 0.353023
24643 4 0.032769 0.089177 0.350605
24644 5 0.0183315 0.115883 0.362214
24645 5 0.0574859 0.120735 0.354503
24649 5 0.0159234 0.0552233 0.35934
24568 1 0.0807077 0.0252279 0.357687
22022 5 0.113285 0.0615707 0.355409
22097 5 0.118186 0.119749 0.357392
24582 7 0.0575981 0.0109707 0.339944
24581 7 0.0631663 0.0309399 0.334299
25186 7 0.0359489 0.0917185 0.319981
25217 6 0.0435748 0.0801695 0.322701
25185 7 0.0377668 0.0681478 0.318563
22267 9 0.114615 0.0583887 0.336077
1825 7 0.0038928 0.0336281 0.336728
24819 9 0.0162604 0.00334293 0.341097
24560 5 0.0793746 0.0879615 0.376261
22268 9 0.135064 0.125651 0.331961
22266 9 0.122706 0.011006 0.337222
22634 7 0.161538 0.100106 0.313133
22020 3 0.1285 0.050112 0.337421
22024 3 0.133589 0.115708 0.337179
20391 9 0.230288 0.112659 0.312213
22633 7 0.177402 0.0882385 0.319769
20409 9 0.179382 0.0214591 0.318623
22032 7 0.206382 0.0418354 0.33663
22021 4 0.135927 0.0288325 0.354747
20065 6 0.240342 0.0282454 0.322044
22631 7 0.16089 0.0718151 0.338707
22632 7 0.158797 0.0962343 0.334491
19714 9 0.231174 0.077715 0.335694
22666 6 0.16923 0.084499 0.335049
19468 3 0.23347 0.107501 0.336496