ITEM: TIMESTEP
353000
ITEM: NUMBER OF ATOMS
25520
ITEM: BOX BOUNDS pp pp pp
-3.9190859519808202e-01 6.0090452185198551e+01
-1.9475777913488799e+00 5.9117863065349567e+01
-1.2650499397139974e+01 1.1192623180314550e+02
ITEM: ATOMS id type xs ys zs
25182 6 0.10319 0.0139841 0.153061
25252 6 0.108738 0.0805352 0.151775
25214 3 0.0425501 0.0424608 0.159503
25287 5 0.030513 0.0483856 0.176861
25283 5 0.0706883 0.114648 0.170292
25282 5 0.0309159 0.112194 0.177
25281 4 0.0458781 0.08091 0.165973
25277 2 0.0469665 0.106448 0.16781
25215 5 0.0736586 0.0482431 0.171497
25209 2 0.0491965 0.0562029 0.169356
25188 1 0.101713 0.0819552 0.172307
25458 9 0.0336904 0.0505217 0.154366
25206 1 0.0975386 0.0181936 0.173437
2433 1 0.00574357 0.0186952 0.176925
25293 7 0.120403 0.0917007 0.150453
25280 5 0.0419916 0.12106 0.158467
25220 7 0.115463 0.00316566 0.153888
25219 7 0.0958688 0.0107231 0.1464
25292 7 0.115952 0.0671348 0.148853
22735 5 0.130762 0.112235 0.17172
22660 5 0.132213 0.0539198 0.172638
22905 9 0.147587 0.0340802 0.14892
22662 3 0.142574 0.115354 0.151771
22658 3 0.148102 0.0479971 0.152384
22656 2 0.149225 0.0427901 0.164803
20112 5 0.231656 0.0495535 0.172902
22663 5 0.172132 0.113005 0.165234
22654 1 0.197172 0.0814811 0.167801
22661 5 0.17247 0.0490227 0.168729
22669 7 0.220192 0.0286393 0.151358
22659 4 0.145909 0.0173242 0.167775
22563 1 0.203434 0.0202799 0.172087
22629 6 0.211793 0.015614 0.151733
22630 6 0.18969 0.0728033 0.14876
22667 7 0.197044 0.0676854 0.142509
22668 7 0.17687 0.0623216 0.150189
20108 5 0.235725 0.114107 0.16994
22657 2 0.148183 0.121411 0.163931
20106 3 0.249846 0.11408 0.14944
22670 7 0.223492 0.00375048 0.150933
20104 2 0.252008 0.105346 0.161217
20353 9 0.252898 0.102268 0.144592
20036 3 0.251277 0.041621 0.154566
20107 4 0.246907 0.0805391 0.160818
20352 9 0.266221 0.0347305 0.153867
20042 7 0.301495 0.0112877 0.14754
20031 2 0.250558 0.0556321 0.165232
20118 7 0.318584 0.0878783 0.148375
20117 7 0.32393 0.0627059 0.150097
20077 6 0.313919 0.0744068 0.152815
17480 3 0.347027 0.0454013 0.155155
17799 9 0.361172 0.0491781 0.151351
17478 2 0.352671 0.043477 0.167352
20109 5 0.274173 0.112019 0.165826
17482 5 0.335504 0.0534815 0.175039
20037 5 0.274305 0.0562681 0.169443
20011 1 0.302576 0.083067 0.171927
20028 1 0.300423 0.0222112 0.173127
17481 4 0.352365 0.0191342 0.170807
20003 6 0.298867 0.0239705 0.15307
17560 5 0.330082 0.113174 0.171777
17484 3 0.342498 0.112792 0.152363
20041 7 0.310925 0.0336892 0.151358
17479 2 0.347268 0.121746 0.16395
17800 9 0.336014 0.124417 0.1481
17485 5 0.370818 0.114174 0.168123
17483 5 0.374985 0.0545208 0.169128
14848 1 0.496974 0.0179225 0.173938
17490 7 0.415316 0.0679109 0.145582
17489 7 0.424223 0.0858423 0.152138
17451 6 0.410274 0.0807779 0.149736
14856 3 0.446562 0.0428763 0.154972
15246 9 0.457462 0.0313048 0.15369
14929 4 0.447325 0.0786702 0.164776
14926 2 0.451611 0.103615 0.165788
14851 2 0.450601 0.053587 0.165937
14931 5 0.476105 0.104658 0.169673
14857 5 0.474257 0.048739 0.169568
17476 1 0.39681 0.0852632 0.169478
14934 5 0.434043 0.0442909 0.174942
14930 5 0.434025 0.112514 0.17351
17384 1 0.401878 0.0172836 0.175413
17450 6 0.408987 0.0166851 0.155408
17492 7 0.419569 0.0272791 0.152319
17491 7 0.404766 0.00766548 0.149081
14928 3 0.449132 0.114206 0.153872
14826 6 0.48939 0.00756802 0.154864
17566 7 0.410541 0.122412 0.15047
14861 7 0.486668 0.0045571 0.147159
15247 9 0.462518 0.115115 0.150143
25353 3 0.0468132 0.239637 0.1567
2033 7 0.0529991 0.138525 0.133885
25253 6 0.109139 0.149603 0.151241
2032 7 0.0425197 0.164787 0.134516
1995 6 0.0393801 0.147731 0.137029
25275 1 0.095941 0.144733 0.171024
25278 8 0.0312288 0.14365 0.151473
22957 9 0.0876032 0.207685 0.150941
22732 3 0.101344 0.207707 0.155581
25285 4 0.0411359 0.165104 0.159936
25359 5 0.0314729 0.177161 0.178488
25356 5 0.0716807 0.235519 0.172724
25354 4 0.0489735 0.205773 0.166955
25351 2 0.0488446 0.2315 0.168381
25286 5 0.0712629 0.173824 0.173059
25279 2 0.0480114 0.179856 0.169167
25259 1 0.100484 0.209189 0.174478
25355 5 0.0309314 0.241609 0.175015
25433 7 0.0541834 0.190555 0.150484
25394 6 0.0555902 0.200007 0.14423
25432 7 0.0519508 0.214088 0.146865
1933 1 0.00106717 0.145063 0.175034
25291 7 0.119066 0.161379 0.152955
25290 7 0.119454 0.139627 0.147907
2104 7 0.0183033 0.20496 0.151018
25284 3 0.00104737 0.146756 0.156212
25459 9 0.0595969 0.249802 0.155383
22906 9 0.154307 0.104811 0.149569
1963 7 0.147531 0.224795 0.133523
1962 7 0.15019 0.197943 0.13454
22741 7 0.218171 0.130683 0.145858
22740 7 0.220253 0.155576 0.149465
1927 6 0.137881 0.209983 0.135729
22726 8 0.130434 0.211746 0.151444
22730 5 0.131634 0.176896 0.175729
22700 6 0.209833 0.143443 0.148987
22636 1 0.204394 0.144344 0.169971
22729 4 0.148058 0.147057 0.163635
22733 4 0.138806 0.233424 0.159341
20188 7 0.196231 0.236054 0.152452
20189 7 0.217657 0.224525 0.154992
20148 6 0.202455 0.221352 0.153224
22728 5 0.142944 0.187962 0.157755
22725 2 0.150094 0.171594 0.166482
20178 5 0.23016 0.243134 0.175713
20183 5 0.231673 0.177115 0.171609
22723 1 0.196478 0.210933 0.172389
22731 5 0.172297 0.179569 0.170675
22734 5 0.170718 0.244132 0.17187
22807 5 0.131984 0.244145 0.177351
20110 3 0.24314 0.175055 0.152134
22727 2 0.147977 0.248929 0.168072
20354 9 0.239028 0.186063 0.147472
20177 4 0.243714 0.211762 0.162594
20105 2 0.24784 0.186156 0.163384
20173 2 0.24732 0.236262 0.166598
25237 7 0.00458265 0.0722883 0.242219
17555 4 0.343114 0.146877 0.162643
20102 1 0.295853 0.146343 0.171089
17554 3 0.347303 0.182726 0.152784
17801 9 0.3419 0.197123 0.153075
17558 3 0.339416 0.227151 0.154779
17552 2 0.349533 0.171406 0.163843
17556 5 0.331534 0.179934 0.171679
20111 5 0.271599 0.179288 0.166729
20084 1 0.301586 0.20708 0.171568
20179 5 0.271455 0.237057 0.170064
17631 5 0.332726 0.239636 0.1732
17802 9 0.336497 0.23714 0.148754
17553 2 0.349248 0.242363 0.1638
17559 5 0.373083 0.234821 0.166241
17557 5 0.372179 0.173369 0.168406
14940 7 0.49966 0.130155 0.14327
17564 7 0.389285 0.207895 0.142709
17563 7 0.377135 0.189615 0.148886
14938 7 0.436417 0.188132 0.14139
14937 7 0.423412 0.20898 0.140803
17565 7 0.419794 0.146133 0.149604
17525 6 0.407107 0.138019 0.151938
17459 1 0.402404 0.144311 0.172042
17526 6 0.391448 0.19732 0.148471
14899 6 0.435689 0.201683 0.137667
15248 9 0.459705 0.162637 0.150015
15002 3 0.441666 0.235458 0.151693
14932 3 0.446372 0.170055 0.152591
15000 2 0.450128 0.229843 0.16321
15003 4 0.452459 0.205244 0.164144
14927 2 0.453048 0.179883 0.164395
15005 5 0.473285 0.240526 0.166231
14933 5 0.475818 0.172453 0.167858
15004 5 0.431253 0.236017 0.171236
17550 1 0.398801 0.204383 0.168266
15008 5 0.435164 0.172169 0.172233
15249 9 0.446306 0.224062 0.146671
17539 5 0.397143 0.207917 0.189845
25471 9 0.0680533 0.00999579 0.244579
25198 5 0.0961294 0.0796969 0.19265
25195 5 0.0954107 0.0196365 0.192619
25268 5 0.0553012 0.0827319 0.19746
25258 1 0.0274367 0.114812 0.19616
25207 1 0.0296251 0.0526055 0.198926
25191 2 0.0787043 0.0892936 0.200525
25263 4 0.0802664 0.113681 0.201368
25197 4 0.0803282 0.0778732 0.211697
25192 5 0.0778042 0.0312994 0.209909
25196 3 0.0397309 0.056534 0.217417
25190 8 0.0707109 0.0531847 0.218357
25510 9 0.0299484 0.0588798 0.224414
25517 7 0.0802881 0.0615403 0.238508
25240 6 0.0838331 0.0499125 0.232143
22685 7 0.0872822 0.0992042 0.220554
25506 7 0.0804461 0.0354983 0.236825
22649 6 0.091692 0.111897 0.22535
25194 5 0.0538177 0.0183874 0.197968
25189 2 0.078168 0.0145093 0.200873
25201 6 0.0194662 0.0677032 0.244948
22684 7 0.0776276 0.114737 0.229861
25270 6 0.0544191 0.116646 0.236212
22760 7 0.106482 0.101946 0.241257
22717 6 0.116298 0.103594 0.247347
25204 7 0.032706 0.0167253 0.21738
25310 7 0.0529626 0.102825 0.239381
25205 7 0.0104083 0.00579035 0.21978
25271 7 0.0336908 0.12247 0.222513
25234 6 0.026793 0.00242615 0.218439
20061 7 0.118772 0.0616178 0.229177
22651 7 0.110633 0.0318261 0.212575
25236 7 0.0244512 0.082279 0.247431
25227 3 0.0646039 0.0236257 0.24861
25472 9 0.0497155 0.0703622 0.248183
22958 9 0.126909 0.111198 0.217787
25299 5 0.0609204 0.152779 0.249459
22575 6 0.121029 0.000559109 0.246002
22759 7 0.130617 0.0995964 0.244511
22635 1 0.124556 0.050677 0.192917
22614 7 0.135542 0.0075554 0.24389
22683 6 0.123854 0.0410292 0.212902
22653 7 0.141213 0.0062615 0.218117
22650 7 0.130133 0.0389577 0.219781
22643 5 0.198791 0.0839863 0.188054
17509 7 0.22731 0.0112386 0.227642
20062 7 0.140912 0.0519132 0.233071
22572 5 0.196613 0.0194592 0.192611
22686 7 0.158038 0.01297 0.230936
20083 1 0.2279 0.113131 0.189449
20134 7 0.195232 0.05687 0.243249
22687 7 0.161645 0.0316015 0.224512
22648 6 0.153416 0.0276594 0.231001
20023 6 0.133267 0.0665881 0.23302
22919 9 0.154391 0.0772531 0.242363
22931 9 0.185986 0.0352097 0.21606
22655 1 0.130176 0.112695 0.192862
20029 1 0.23224 0.0531943 0.194269
22642 5 0.156291 0.0824656 0.191978
20063 7 0.204475 0.0613891 0.22294
22637 2 0.180033 0.0781909 0.195601
22641 4 0.181524 0.0539406 0.199649
22565 2 0.179264 0.0288627 0.199828
22640 5 0.178049 0.0911387 0.205843
20060 6 0.234339 0.0555374 0.215431
20022 6 0.188902 0.0579079 0.223288
20064 7 0.181189 0.06564 0.217242
22647 5 0.155503 0.0207983 0.197599
20096 6 0.205604 0.0477064 0.247108
22571 3 0.182279 0.0216098 0.211569
22638 8 0.169115 0.112134 0.214646
22918 9 0.173628 0.0164663 0.246283
22965 7 0.176934 0.0989052 0.233952
20098 7 0.239372 0.11641 0.215964
20131 6 0.227515 0.115231 0.210086
22644 3 0.138638 0.111191 0.211771
22688 6 0.18064 0.113158 0.228963
17471 6 0.234329 0.0196842 0.233118
20097 6 0.216034 0.113128 0.246909
20132 7 0.210736 0.117733 0.239867
20135 7 0.210525 0.037228 0.241139
22675 3 0.160891 0.0870137 0.247707
20133 7 0.228391 0.102488 0.244605
20025 7 0.242414 0.068575 0.214919
20045 7 0.206834 0.0015132 0.212695
17510 7 0.234587 0.0340081 0.229209
20099 7 0.214823 0.122979 0.212892
22920 9 0.16541 0.123279 0.249919
20051 3 0.264374 0.0270311 0.247624
20130 6 0.256825 0.103715 0.227202
20024 7 0.245658 0.0444897 0.216904
20056 3 0.26413 0.0843011 0.248227
20366 9 0.261544 0.0688745 0.246695
20101 7 0.261387 0.0931017 0.232576
20100 7 0.269291 0.113944 0.226372
20365 9 0.25093 0.0250556 0.243375
20020 5 0.298637 0.0818647 0.19398
20017 5 0.294972 0.0216624 0.193323
20016 5 0.253618 0.0219183 0.196632
17477 1 0.331444 0.117248 0.193387
17458 1 0.325522 0.0521232 0.194475
20095 5 0.257257 0.0814913 0.196106
17464 5 0.354226 0.0872051 0.19602
20013 2 0.279723 0.0902514 0.200489
20379 9 0.271553 0.0920383 0.216718
20089 4 0.280769 0.11622 0.20126
20019 3 0.281946 0.0829139 0.212371
20378 9 0.286363 0.0361533 0.21306
17466 6 0.320078 0.0554905 0.2135
17493 7 0.307253 0.0662696 0.21388
17494 7 0.331693 0.0622686 0.217681
17473 7 0.343768 0.109372 0.218877
14960 7 0.363649 0.0835627 0.218985
17548 7 0.291329 0.119316 0.217369
14918 6 0.349434 0.0846367 0.223136
14959 7 0.353549 0.0865873 0.230805
17469 5 0.354283 0.0198603 0.199256
17456 7 0.290918 0.0422031 0.244869
17457 7 0.310932 0.0512615 0.239241
20014 3 0.274433 0.0254254 0.212738
20012 2 0.276747 0.0146413 0.201345
17503 6 0.304202 0.0497774 0.2463
17499 3 0.363306 0.0832678 0.245441
17583 7 0.303555 0.119825 0.23794
14847 7 0.360029 0.0309449 0.237187
14878 6 0.357033 0.0411123 0.231166
17544 6 0.301873 0.111946 0.244706
17825 9 0.370635 0.0282468 0.219256
14846 7 0.354938 0.0544871 0.234604
25231 3 0.0628427 0.0779063 0.250115
17582 7 0.289607 0.102278 0.242937
14844 7 0.407575 0.00249661 0.217759
17463 4 0.375388 0.0537431 0.201427
17460 2 0.376747 0.0783581 0.198986
14875 4 0.459026 0.0720247 0.249102
17386 2 0.376488 0.0289599 0.202616
17813 9 0.37316 0.0956706 0.245621
14838 5 0.493295 0.022757 0.194664
17465 5 0.393552 0.0832733 0.189679
15272 9 0.479925 0.00631223 0.21913
17462 3 0.384583 0.0907262 0.209416
17391 3 0.382816 0.0248698 0.214683
14906 1 0.424942 0.111825 0.192181
17392 5 0.395652 0.0192484 0.195795
17826 9 0.399276 0.0855555 0.21166
14849 1 0.429887 0.0521473 0.194614
14917 5 0.454361 0.0793573 0.194943
14837 5 0.453188 0.021245 0.200114
14911 4 0.478076 0.112198 0.198379
14834 2 0.477547 0.0877485 0.199411
14839 3 0.481324 0.0801678 0.211432
14955 6 0.417994 0.0606438 0.214457
15273 9 0.47826 0.0919714 0.216418
14922 7 0.427998 0.0560507 0.219623
14923 7 0.404939 0.0520457 0.216409
15308 7 0.463792 0.0596242 0.223345
14884 6 0.456383 0.0474272 0.228083
15297 7 0.462824 0.0319862 0.224775
15303 9 0.40589 0.0541055 0.241416
14868 8 0.448389 0.0487619 0.242743
14835 3 0.485644 0.0178085 0.214343
14874 3 0.418196 0.0481141 0.245702
14833 2 0.477582 0.013837 0.202729
14951 6 0.400392 0.117828 0.243139
14914 6 0.422616 0.116282 0.212606
14840 5 0.495862 0.078213 0.192779
12366 6 0.4808 0.11321 0.227117
14904 7 0.397155 0.110655 0.235896
14905 7 0.388045 0.128268 0.243644
17860 7 0.374525 0.00258001 0.227229
17798 9 0.347027 -0.0002896 0.153468
25308 6 0.0268394 0.120139 0.215438
25381 7 0.0171073 0.231177 0.235738
25272 7 0.0128597 0.12891 0.2155
25343 6 0.00801438 0.234961 0.242155
25309 7 0.0592812 0.127029 0.241696
25484 9 0.0898976 0.133408 0.216264
25267 5 0.0971489 0.205311 0.195246
25265 5 0.0952208 0.144016 0.190782
25348 7 0.0310825 0.17486 0.221285
25347 7 0.00730572 0.177568 0.217147
25512 9 0.00905339 0.170496 0.238668
25303 3 0.0202746 0.175307 0.244349
25260 2 0.0791736 0.13914 0.200297
25264 5 0.0556776 0.145866 0.198886
25332 1 0.0250652 0.237342 0.196167
25276 1 0.0298006 0.177185 0.196282
25342 5 0.0559945 0.207202 0.19767
25337 4 0.0824248 0.239388 0.202438
25261 2 0.0783881 0.213648 0.202263
25266 3 0.0813348 0.204415 0.214174
25262 3 0.0893385 0.146092 0.211178
25485 9 0.0954717 0.196491 0.214244
22720 7 0.109914 0.166295 0.21573
25377 6 0.022174 0.181296 0.215649
25507 7 0.0635915 0.180804 0.221277
25518 7 0.0769875 0.160171 0.226999
25314 6 0.0619135 0.170501 0.227742
25297 8 0.0512611 0.175433 0.241945
22718 6 0.106785 0.181143 0.244181
22830 7 0.0652527 0.228465 0.223226
22791 6 0.0652505 0.236711 0.229244
22829 7 0.069987 0.227316 0.23482
25378 6 0.0222379 0.238098 0.216554
25345 7 0.0308366 0.238679 0.223065
22757 7 0.100646 0.168556 0.240609
22751 3 0.121734 0.23448 0.243778
22758 7 0.122907 0.180718 0.241822
22960 9 0.112789 0.219385 0.24372
22706 1 0.127142 0.175111 0.194261
22756 6 0.122255 0.176081 0.213962
22825 6 0.122793 0.234619 0.218041
22796 7 0.108942 0.228488 0.215873
22954 7 0.177009 0.1259 0.234633
22795 7 0.120083 0.237181 0.225694
20208 7 0.199058 0.245813 0.238969
22646 5 0.195734 0.144769 0.188329
22713 5 0.194389 0.208593 0.191673
20103 1 0.229908 0.17526 0.191824
22719 7 0.128479 0.17736 0.221097
22716 5 0.155737 0.152116 0.19405
20154 1 0.22228 0.243109 0.194854
22724 1 0.130223 0.238393 0.196983
22722 7 0.154292 0.191038 0.239316
22645 4 0.177608 0.134993 0.206678
22712 5 0.155822 0.208399 0.198612
22639 2 0.179642 0.151277 0.197073
22708 2 0.178846 0.200254 0.200843
22711 4 0.181532 0.17528 0.201223
22710 3 0.184875 0.207437 0.212428
22932 9 0.188327 0.194773 0.217096
20167 7 0.20476 0.232115 0.215957
20204 6 0.216331 0.242246 0.21426
20092 3 0.234868 0.173974 0.211891
22721 7 0.156023 0.167098 0.24061
20406 9 0.221465 0.177093 0.217218
22966 7 0.168696 0.229941 0.222326
22745 8 0.152 0.236871 0.24199
20166 6 0.18615 0.170392 0.224001
20206 7 0.171346 0.174021 0.227592
22755 6 0.14865 0.176996 0.235956
20205 7 0.181969 0.161722 0.217802
22762 6 0.169751 0.239978 0.22911
20169 7 0.207719 0.16727 0.237752
20203 6 0.207403 0.165358 0.245405
20170 7 0.190854 0.16383 0.245957
20165 6 0.208795 0.241266 0.244923
22679 3 0.165833 0.139869 0.248736
17584 6 0.370536 0.239674 0.229299
17618 7 0.288352 0.249513 0.238022
17508 6 0.336236 0.119109 0.213129
17578 6 0.294327 0.129436 0.223109
17472 7 0.322536 0.125358 0.216701
20368 9 0.271495 0.221019 0.242414
20367 9 0.251704 0.14251 0.244174
20123 3 0.263675 0.148659 0.248362
20091 5 0.29585 0.146068 0.189739
20094 5 0.293378 0.208919 0.191697
2065 6 0.003501 0.206741 0.152808
17827 9 0.36573 0.132717 0.212388
20127 3 0.270111 0.207558 0.24674
17571 3 0.361976 0.206933 0.247219
17549 7 0.292297 0.144352 0.219047
17531 1 0.323963 0.178621 0.192824
20090 5 0.25602 0.139913 0.19075
17551 1 0.326039 0.238095 0.192559
17538 5 0.353959 0.202808 0.191374
20164 5 0.25012 0.21014 0.19194
17543 5 0.354484 0.146309 0.197083
20085 2 0.27683 0.139772 0.197403
20086 8 0.264142 0.178642 0.215255
20087 2 0.271975 0.216533 0.197216
20159 4 0.272639 0.241438 0.199689
20088 5 0.273319 0.155659 0.206687
20093 4 0.270416 0.201418 0.206684
17547 7 0.313229 0.17872 0.218345
17540 3 0.332892 0.237652 0.211836
17579 6 0.323531 0.172227 0.213478
17546 7 0.33494 0.168925 0.218509
20136 6 0.279314 0.181666 0.228976
20413 7 0.278624 0.196605 0.233163
20402 7 0.271557 0.170719 0.235026
17534 8 0.363333 0.237298 0.214454
17580 7 0.332454 0.228735 0.240454
17545 6 0.324211 0.237453 0.245202
17815 9 0.366597 0.19421 0.242995
17814 9 0.359596 0.158234 0.24179
15026 6 0.365527 0.174657 0.230074
17850 7 0.366449 0.225602 0.234319
17854 9 0.321341 0.237411 0.218187
17651 6 0.27931 0.242142 0.23283
17504 3 0.363403 0.145738 0.246558
17581 7 0.335772 0.248081 0.247789
14924 1 0.499187 0.142104 0.170267
12407 7 0.476623 0.12434 0.221825
15030 7 0.421533 0.239884 0.238706
14992 6 0.410636 0.234112 0.243317
14942 7 0.42929 0.126956 0.217825
12408 7 0.477577 0.122336 0.233303
14997 7 0.369704 0.163558 0.225225
14925 1 0.430945 0.176214 0.192397
14979 1 0.42522 0.236581 0.188457
14957 7 0.411865 0.198751 0.241761
15031 7 0.397381 0.237037 0.239581
14916 5 0.496093 0.203978 0.189618
12353 7 0.49044 0.189009 0.243451
14958 7 0.415689 0.178184 0.235593
14956 6 0.440997 0.17972 0.212017
17533 2 0.376458 0.201912 0.197018
17537 4 0.381349 0.177862 0.201259
17461 2 0.378327 0.152079 0.200031
14941 7 0.40745 0.122644 0.212242
14985 4 0.479595 0.237068 0.196957
17536 5 0.373425 0.216959 0.206076
14947 3 0.469327 0.146285 0.244893
15261 9 0.481969 0.156356 0.244712
14991 5 0.45682 0.20509 0.192571
12329 7 0.445351 0.150316 0.234124
12291 6 0.433687 0.146712 0.228803
17468 5 0.396185 0.144026 0.192232
15274 9 0.495878 0.141675 0.212694
14921 7 0.449187 0.166685 0.210489
14919 6 0.412209 0.182234 0.242804
17467 3 0.3801 0.1392 0.211025
15275 9 0.468022 0.196281 0.211407
14908 2 0.476302 0.13729 0.198461
12328 7 0.423531 0.139747 0.234051
14920 7 0.434185 0.17658 0.218736
14912 5 0.454188 0.14583 0.19474
15262 9 0.473573 0.219875 0.243715
14913 5 0.494458 0.142059 0.189484
14910 3 0.480743 0.146018 0.210307
14909 2 0.478285 0.211731 0.197187
14996 7 0.378933 0.173495 0.234465
14915 3 0.48077 0.202724 0.208817
14952 3 0.467889 0.208971 0.24805
25346 7 0.0114712 0.250179 0.218854
17512 7 0.270041 0.00295352 0.23264
25178 3 0.032142 0.054968 0.304955
25245 3 0.0282874 0.110187 0.306723
25251 5 0.0157395 0.0492934 0.286284
25246 4 0.0305038 0.083802 0.291846
25243 2 0.0325379 0.108594 0.294342
25224 1 0.0856165 0.0842466 0.289039
25179 5 0.0575135 0.0512264 0.289002
25173 2 0.0347178 0.0583424 0.292481
25170 1 0.0836728 0.0210686 0.288446
25232 5 0.0796168 0.0818677 0.268457
25230 5 0.0804181 0.0272862 0.267259
22671 1 0.110536 0.0519529 0.266613
25171 1 0.0139694 0.0534907 0.264245
25229 5 0.0390191 0.0249879 0.264636
25294 1 0.0058668 0.115474 0.266293
25306 5 0.0375512 0.0849325 0.263939
25226 2 0.0616197 0.0900358 0.26077
25225 2 0.0616428 0.0180486 0.260699
25496 9 0.0364065 0.0412365 0.307116
25288 6 0.0936278 0.0833294 0.309579
25497 9 0.0227644 0.0953539 0.309737
22619 1 0.113768 0.113219 0.266707
25300 4 0.0648127 0.115051 0.258666
25248 5 0.0543206 0.116515 0.290883
22699 5 0.118305 0.11119 0.286352
22624 5 0.117427 0.05807 0.287318
25183 7 0.108132 0.0289242 0.309195
25218 6 0.095987 0.0181322 0.308034
25256 7 0.100421 0.0682615 0.310455
25247 5 0.0125974 0.117453 0.288262
25184 7 0.104364 0.00476203 0.305702
25257 7 0.106326 0.0926117 0.309019
1930 7 0.000975907 0.0150347 0.310208
1928 7 0.00404875 0.0686712 0.307705
1861 9 -0.00184858 0.199593 0.426795
22626 3 0.122994 0.118359 0.306146
22622 3 0.128777 0.0528179 0.306233
22623 4 0.132313 0.0206863 0.29441
22681 5 0.139835 0.023538 0.264005
22620 2 0.134167 0.0468294 0.294295
19999 4 0.22536 0.04435 0.299895
19993 2 0.233356 0.0617041 0.292183
20068 2 0.234264 0.111096 0.294952
20071 4 0.23137 0.0854619 0.296583
22625 5 0.15748 0.0536661 0.291596
22627 5 0.157053 0.112375 0.293076
22618 1 0.181806 0.0831981 0.286639
20076 5 0.21826 0.0579442 0.282649
22600 1 0.189369 0.0234815 0.290017
22609 5 0.181822 0.0228706 0.271293
22678 5 0.178661 0.0822522 0.267613
19990 1 0.215323 0.0520263 0.265593
22677 5 0.13921 0.0782543 0.262669
20129 5 0.240137 0.0800967 0.264524
20053 5 0.238028 0.0168814 0.262214
22602 2 0.164143 0.0261955 0.262152
22673 2 0.163073 0.0752964 0.258624
22676 4 0.165121 0.0488647 0.256673
19998 3 0.189696 0.0236552 0.308984
19992 8 0.220912 0.0219205 0.309297
20119 1 0.210584 0.114594 0.267084
20072 5 0.215988 0.118482 0.286883
22621 2 0.133632 0.11977 0.294727
20391 9 0.231232 0.109512 0.311406
20070 3 0.22867 0.121306 0.306078
22608 3 0.171042 0.00955769 0.253635
22944 9 0.133885 0.1184 0.311984
22943 9 0.142549 0.0582757 0.309744
20000 5 0.256401 0.0538707 0.288201
17448 5 0.358217 0.113409 0.287527
17440 8 0.325965 0.0847862 0.308348
17446 3 0.295365 0.0867934 0.307568
17442 5 0.331102 0.062904 0.29987
17447 4 0.330534 0.107974 0.299762
17443 4 0.334353 0.021722 0.293819
17439 2 0.335457 0.0461647 0.290539
20048 1 0.288883 0.0844609 0.288248
19989 1 0.281342 0.0212539 0.286886
17445 5 0.358872 0.0525696 0.286914
17444 5 0.316367 0.0522987 0.283057
20057 5 0.279244 0.0794421 0.267825
17495 1 0.308968 0.0508919 0.265982
17506 5 0.339744 0.0239912 0.265095
20054 5 0.277782 0.0195536 0.267819
17438 1 0.313212 0.113475 0.263278
17501 5 0.337648 0.081924 0.260887
17421 2 0.363313 0.0260353 0.261465
20050 2 0.261517 0.0887742 0.260543
20049 2 0.261334 0.013971 0.258089
17497 2 0.360481 0.0755317 0.257557
20040 6 0.285838 0.0211769 0.306221
17500 4 0.365519 0.050253 0.257129
20073 5 0.258729 0.115648 0.291658
20124 4 0.262459 0.114063 0.261965
17524 5 0.318795 0.116735 0.281374
17441 2 0.33532 0.121316 0.290076
20004 7 0.296725 0.0240723 0.311921
17427 4 0.362144 0.0105848 0.251558
11733 7 0.496672 0.116777 0.398428
17380 7 0.403123 0.00371034 0.308039
17502 5 0.378953 0.0838518 0.264564
17428 5 0.379792 0.0183208 0.27005
17437 1 0.382571 0.0844637 0.285068
14822 3 0.42665 0.0476172 0.301642
14891 4 0.437321 0.08623 0.293486
14817 2 0.436632 0.06002 0.292017
14887 2 0.436039 0.11011 0.289575
14823 5 0.459614 0.0518591 0.289026
17418 1 0.390625 0.0206635 0.287103
14893 5 0.458036 0.11929 0.285998
14897 5 0.419863 0.0562668 0.282511
14892 5 0.417956 0.113752 0.281543
14866 1 0.486985 0.0837259 0.285054
14814 1 0.484307 0.020417 0.286109
14873 5 0.479489 0.0179562 0.266985
14876 5 0.479408 0.0796074 0.265027
14815 1 0.414254 0.0518003 0.263903
14943 1 0.410016 0.113681 0.263549
14954 5 0.438626 0.0874334 0.262072
17412 6 0.394013 0.0171643 0.307608
14869 2 0.461897 0.0893908 0.257747
14872 5 0.437912 0.0123069 0.265864
14867 2 0.459479 0.0108777 0.26019
14948 4 0.466347 0.114015 0.25599
14860 6 0.491763 0.0811718 0.306482
17379 7 0.405733 0.0272227 0.307173
15286 9 0.434155 0.0523499 0.30823
14903 7 0.438505 0.080267 0.310947
25255 7 0.0768598 0.173065 0.306658
25296 2 0.0608869 0.139921 0.259852
25241 1 0.0779839 0.14665 0.287508
25249 3 0.0200786 0.175829 0.300499
25360 6 0.0890546 0.207334 0.307821
25320 4 0.0289211 0.212405 0.29137
25317 2 0.0336003 0.237075 0.290623
25295 1 0.0864732 0.208612 0.286735
25250 5 0.0543467 0.178915 0.288973
25244 2 0.0310901 0.18694 0.290287
25325 5 0.0158823 0.179339 0.281728
25302 5 0.0789076 0.14656 0.268679
25305 5 0.0798137 0.210838 0.267482
22742 1 0.107547 0.17687 0.26429
25301 5 0.0375499 0.1427 0.26401
25242 1 0.0130889 0.17616 0.262844
25376 5 0.0359735 0.217301 0.264222
25298 2 0.0603588 0.215165 0.2596
25289 6 0.0795385 0.157439 0.307921
25366 1 0.00676973 0.242049 0.262439
25498 9 0.0144295 0.187162 0.305116
25371 4 0.0669148 0.238618 0.255311
22690 1 0.112913 0.238279 0.263463
22773 5 0.117477 0.239298 0.282518
25322 5 0.0568687 0.241546 0.288419
22695 5 0.112586 0.177778 0.286033
25330 7 0.09665 0.220536 0.305656
25499 9 0.0311801 0.231343 0.307637
25321 5 0.0160365 0.246906 0.283477
25331 7 0.0998052 0.199691 0.312621
17160 9 0.331581 -0.000526103 0.331754
25319 3 0.0307954 0.244419 0.303089
22697 3 0.120143 0.243014 0.302402
25254 7 0.0656717 0.151829 0.311083
22945 9 0.123929 0.157653 0.308239
22693 3 0.126914 0.172128 0.305802
22694 4 0.134148 0.144284 0.292275
22691 2 0.131924 0.169642 0.29313
22748 4 0.164176 0.175076 0.258324
22674 2 0.160389 0.15023 0.259917
22754 5 0.137499 0.143356 0.26383
20202 5 0.23901 0.206018 0.261274
22672 1 0.184246 0.14745 0.287702
20142 4 0.235049 0.208578 0.29169
20147 5 0.217309 0.175281 0.283892
22696 5 0.155426 0.178924 0.29127
20074 3 0.229205 0.174265 0.303328
20069 2 0.235123 0.183334 0.291751
22689 1 0.181373 0.208919 0.287505
20392 9 0.234644 0.15936 0.303797
20139 2 0.236539 0.233609 0.293254
20067 1 0.213403 0.17612 0.264742
22680 5 0.177326 0.143147 0.26809
22750 5 0.176675 0.206188 0.269344
22749 5 0.135798 0.200786 0.263957
20125 5 0.239459 0.147915 0.264196
22744 2 0.159529 0.199631 0.260408
22737 6 0.188892 0.205856 0.307681
22736 6 0.191993 0.150648 0.308392
22698 5 0.156048 0.239028 0.290092
20190 1 0.209366 0.237673 0.2658
20143 5 0.21698 0.24086 0.286554
22704 7 0.205113 0.140217 0.307335
20393 9 0.243184 0.237599 0.309782
20141 3 0.2298 0.240303 0.305351
22702 7 0.201701 0.195731 0.308124
22692 2 0.13204 0.247261 0.291697
22705 7 0.198306 0.164792 0.309172
22703 7 0.195799 0.220827 0.309398
22747 5 0.157394 0.214251 0.250821
17572 4 0.366403 0.176605 0.259675
20126 5 0.279742 0.148167 0.267694
20075 5 0.258489 0.175824 0.290109
20066 1 0.284788 0.14484 0.289005
17516 2 0.33695 0.170549 0.294328
17518 3 0.336383 0.175746 0.307238
20114 6 0.293145 0.212516 0.307659
17519 4 0.336427 0.145796 0.292582
17521 5 0.35945 0.178074 0.290822
20120 1 0.287287 0.208283 0.287263
17520 5 0.318303 0.179368 0.287739
17595 5 0.314633 0.237005 0.286591
17567 1 0.309219 0.175838 0.267495
20128 5 0.278814 0.205094 0.266674
17577 5 0.337106 0.150885 0.261354
17573 5 0.337673 0.206884 0.263981
17498 2 0.361784 0.152308 0.258755
20121 2 0.261932 0.13863 0.26011
17569 2 0.360889 0.201597 0.259548
20122 2 0.262749 0.212691 0.258326
20196 4 0.261789 0.238332 0.257932
20113 6 0.291065 0.149432 0.309664
17523 5 0.356876 0.238274 0.28763
17515 1 0.311976 0.238657 0.264787
17839 9 0.343347 0.162836 0.310507
17840 9 0.319834 0.232197 0.306462
20144 5 0.258666 0.242734 0.289373
17522 3 0.334425 0.239842 0.304882
17529 7 0.360931 0.194276 0.30555
17530 7 0.359354 0.21899 0.308664
20079 7 0.304057 0.199385 0.307803
20081 7 0.307207 0.153197 0.310752
17517 2 0.334832 0.245747 0.29285
20080 7 0.281885 0.208062 0.312973
17561 6 0.370883 0.206366 0.307342
22102 7 0.244171 0.214239 0.32061
14890 5 0.429059 0.125448 0.298641
14966 3 0.425446 0.246709 0.303774
15020 4 0.464 0.244529 0.257964
17505 5 0.37741 0.143892 0.267514
17574 5 0.380741 0.211145 0.265561
17514 1 0.382077 0.208907 0.286529
14945 2 0.464533 0.138845 0.256645
14886 1 0.417398 0.177797 0.26314
14894 3 0.390959 0.144806 0.304082
14972 5 0.41945 0.18011 0.280293
14896 5 0.459196 0.180131 0.287504
14888 8 0.421214 0.147219 0.307073
12342 3 0.486919 0.203052 0.305115
14895 4 0.427471 0.168702 0.297666
14964 2 0.431204 0.235485 0.293255
14967 4 0.432233 0.210036 0.294539
14889 2 0.434838 0.185836 0.28953
17496 1 0.389514 0.147503 0.285444
14944 1 0.485463 0.213512 0.287012
14885 1 0.48201 0.150615 0.285312
14953 5 0.479498 0.212654 0.267899
14936 6 0.481449 0.158099 0.304788
14950 5 0.480249 0.147704 0.265007
15025 5 0.441159 0.207491 0.262991
14949 5 0.440632 0.145058 0.260518
14946 2 0.462116 0.219232 0.259553
15015 1 0.409141 0.240699 0.264172
14969 5 0.453965 0.244298 0.289694
14968 5 0.41533 0.242839 0.284487
14901 7 0.466974 0.155049 0.308493
14900 7 0.482101 0.174406 0.303341
12753 9 0.473882 0.20735 0.310281
15305 9 0.377755 0.14954 0.308822
24819 9 0.0182377 0.00312793 0.339862
24544 6 0.0915475 0.0218262 0.336538
24654 7 0.109336 0.0915381 0.333997
24655 7 0.0896048 0.0849744 0.326607
24614 6 0.0946172 0.0835331 0.333707
24820 9 0.0226754 0.05876 0.333627
24550 1 0.0894598 0.0842903 0.35566
24571 2 0.0346009 0.0609617 0.349863
24576 3 0.0248919 0.0488275 0.339698
24577 5 0.058291 0.0539063 0.352833
24639 2 0.0344727 0.110529 0.35051
24643 4 0.0332514 0.0860171 0.348778
24644 5 0.0166764 0.115744 0.359558
24645 5 0.0581616 0.117215 0.352298
24649 5 0.0199458 0.054586 0.358908
24568 1 0.0839632 0.0247374 0.356292
22022 5 0.119682 0.0560884 0.355848
22097 5 0.120049 0.114881 0.355212
24582 7 0.078888 0.0244236 0.331687
24581 7 0.101357 0.0343167 0.334753
24642 5 0.0289009 0.12701 0.342151
24710 7 0.00206011 0.224783 0.396331
25304 4 0.0576757 0.197858 0.250317
22267 9 0.118756 0.0620744 0.337033
20409 9 0.180591 0.0213635 0.316183
22020 3 0.133171 0.0544648 0.336891
22024 3 0.135841 0.111103 0.336285
22633 7 0.172491 0.05399 0.317427
22665 6 0.165534 0.0661872 0.32015
22634 7 0.158219 0.0606144 0.326839
22032 7 0.20745 0.0139959 0.335836
22021 4 0.140517 0.0227464 0.350389
20065 6 0.240737 0.0244365 0.321004
22631 7 0.175439 0.090501 0.329389
22632 7 0.170051 0.106468 0.338906
19714 9 0.229442 0.0772183 0.336149
22666 6 0.180946 0.0954221 0.336011
19468 3 0.231918 0.109095 0.336915
19398 3 0.231581 0.0616494 0.337802
19466 2 0.238166 0.10871 0.349689
19469 4 0.23766 0.0837751 0.353423
19393 2 0.237713 0.058811 0.34977
19474 5 0.217889 0.0502435 0.355933
22016 1 0.185387 0.0855884 0.355285
22018 2 0.139108 0.0475483 0.348733
22023 5 0.161711 0.0559595 0.352186
22025 5 0.160357 0.116397 0.351576
21925 1 0.189123 0.0216489 0.356336
21991 6 0.196271 0.0258912 0.336206
22031 7 0.205404 0.0390922 0.338301
20416 7 0.235325 0.0378561 0.327003
19470 5 0.221046 0.118876 0.3569
20415 7 0.241981 0.0105875 0.326596