ITEM: TIMESTEP
815000
ITEM: NUMBER OF ATOMS
25520
ITEM: BOX BOUNDS pp pp pp
-3.8504136909156556e-01 6.0083584959091475e+01
-1.9406443617616453e+00 5.9110929635760279e+01
-1.2636354833831227e+01 1.1191208723984373e+02
ITEM: ATOMS id type xs ys zs
25182 6 0.100051 0.0244799 0.154091
25252 6 0.112101 0.0828112 0.152644
25214 3 0.0404266 0.0423198 0.160546
25287 5 0.0329578 0.0547922 0.179309
25283 5 0.0691427 0.114096 0.17234
25282 5 0.0288184 0.114893 0.17764
25281 4 0.0443859 0.0831958 0.166163
25277 2 0.0454808 0.109196 0.168539
25215 5 0.0723547 0.0575721 0.172331
25209 2 0.0479768 0.0590992 0.169432
25188 1 0.101656 0.0860315 0.171915
25458 9 0.0370369 0.0502076 0.153948
25206 1 0.097284 0.0233329 0.17407
25293 7 0.119731 0.0696709 0.150246
25457 9 0.045151 0.0125593 0.159575
2433 1 0.00227552 0.0212978 0.177036
25292 7 0.123689 0.0939525 0.153358
20127 3 0.257887 0.206965 0.248477
25220 7 0.0862802 0.0261986 0.149878
25219 7 0.107763 0.0166506 0.148363
22660 5 0.131302 0.0548752 0.174067
22735 5 0.127326 0.112889 0.172092
22905 9 0.144464 0.0405145 0.15101
22662 3 0.148727 0.111514 0.154693
22658 3 0.144117 0.0529241 0.155442
22656 2 0.150762 0.0473395 0.167329
20112 5 0.230663 0.0559783 0.175439
22663 5 0.170899 0.11628 0.17046
22654 1 0.195971 0.085629 0.171716
22661 5 0.17381 0.0574765 0.170604
22659 4 0.154236 0.0230551 0.169091
22563 1 0.202177 0.0218411 0.174313
22629 6 0.212516 0.0166924 0.153641
22630 6 0.190231 0.0808836 0.151319
22667 7 0.204274 0.0839413 0.146364
22668 7 0.180742 0.068956 0.148604
20108 5 0.229752 0.116109 0.173626
22518 7 0.231426 0.0928431 0.135298
22482 6 0.227006 0.0809629 0.140635
22517 7 0.23354 0.0877632 0.146868
22670 7 0.221796 0.0301825 0.152914
22669 7 0.221709 0.0043503 0.152918
20352 9 0.247915 0.0618068 0.150593
20036 3 0.246048 0.0497059 0.156004
20106 3 0.241272 0.122813 0.15468
22906 9 0.164003 0.105212 0.153508
20104 2 0.247951 0.110037 0.165325
20031 2 0.249242 0.0602466 0.167616
20107 4 0.247321 0.0846032 0.163992
22657 2 0.147501 0.121677 0.166067
1933 1 0.000607913 0.14806 0.177204
20118 7 0.299249 0.0735021 0.149552
20117 7 0.310394 0.0956239 0.150544
20077 6 0.296322 0.0886879 0.152455
17480 3 0.346302 0.0597251 0.159093
17799 9 0.338779 0.0488752 0.15456
17478 2 0.349711 0.0484325 0.170434
20109 5 0.271007 0.117328 0.170478
17482 5 0.330459 0.056312 0.177608
20037 5 0.272014 0.0536432 0.172216
20011 1 0.300905 0.088835 0.173123
20028 1 0.298093 0.0250484 0.173291
17481 4 0.345274 0.0235351 0.167629
17484 3 0.336963 0.106576 0.158481
20003 6 0.295678 0.0376641 0.153536
17485 5 0.372003 0.114259 0.168885
20042 7 0.290006 0.0295726 0.147714
20041 7 0.281183 0.0433781 0.157
17483 5 0.373148 0.0529396 0.174105
17560 5 0.332754 0.117827 0.177639
17800 9 0.344728 0.0926289 0.158406
17479 2 0.347359 0.121196 0.167322
17489 7 0.376246 0.0753784 0.156272
17490 7 0.381692 0.101805 0.158223
17451 6 0.388026 0.0863756 0.155306
14856 3 0.440424 0.0554604 0.157811
15246 9 0.438375 0.0691548 0.154111
14929 4 0.446407 0.0865282 0.168971
14926 2 0.450508 0.111607 0.168656
14851 2 0.449806 0.061216 0.169396
14931 5 0.473514 0.116396 0.17292
14857 5 0.474142 0.0554544 0.171111
17476 1 0.398549 0.0859943 0.174867
14934 5 0.43217 0.0514969 0.177162
14930 5 0.43217 0.12092 0.176531
17384 1 0.403668 0.0234229 0.175483
17450 6 0.406595 0.0223606 0.154548
17492 7 0.411363 0.0372283 0.153101
17491 7 0.420488 0.015235 0.153298
14848 1 0.497691 0.0252297 0.177043
14928 3 0.44894 0.12089 0.157268
14862 7 0.487194 0.0280565 0.152165
2104 7 0.00349461 0.22231 0.153368
14826 6 0.498168 0.0219619 0.157256
25280 5 0.0409949 0.127396 0.160307
25291 7 0.0892898 0.122213 0.153245
25290 7 0.112644 0.131199 0.152199
2033 7 0.045606 0.138729 0.134948
25253 6 0.096867 0.135623 0.154326
2032 7 0.0480223 0.165661 0.135609
1995 6 0.0373676 0.152945 0.137912
25275 1 0.0939496 0.147269 0.174249
25278 8 0.0304128 0.150671 0.153379
22957 9 0.0906989 0.205326 0.151685
22732 3 0.104477 0.211792 0.155942
25285 4 0.0389558 0.172288 0.161962
25359 5 0.0297862 0.180229 0.181109
25356 5 0.0710851 0.239562 0.174913
25354 4 0.0464244 0.210707 0.169014
25351 2 0.0479295 0.235776 0.170857
25286 5 0.0707818 0.176607 0.173995
25279 2 0.0467097 0.185498 0.171686
25259 1 0.103613 0.212128 0.175222
25355 5 0.0291554 0.244598 0.178122
25394 6 0.0594269 0.204108 0.147082
25432 7 0.0548304 0.215399 0.151944
25433 7 0.0544641 0.191038 0.150325
2103 7 0.0211792 0.208879 0.15838
25353 3 0.0471414 0.246673 0.159592
20353 9 0.241034 0.138477 0.15634
1963 7 0.147385 0.241634 0.138941
1962 7 0.157574 0.216815 0.135535
22726 8 0.13388 0.212099 0.152243
22730 5 0.129119 0.177537 0.175726
1927 6 0.142371 0.224663 0.138208
22740 7 0.216556 0.153968 0.152101
22741 7 0.208379 0.131295 0.152804
22700 6 0.202258 0.145608 0.152607
22636 1 0.201103 0.148911 0.172988
22729 4 0.14465 0.146882 0.164136
22733 4 0.140318 0.23313 0.162162
20189 7 0.195611 0.191153 0.148138
20148 6 0.193574 0.202616 0.153478
22728 5 0.144056 0.188694 0.158519
22725 2 0.147428 0.171906 0.16714
20178 5 0.229944 0.239905 0.177585
20183 5 0.234414 0.178812 0.177449
22723 1 0.196653 0.210634 0.174238
22731 5 0.171194 0.180086 0.17028
20188 7 0.179271 0.198287 0.156558
20173 2 0.247957 0.235165 0.168723
20177 4 0.246293 0.210426 0.167185
20110 3 0.24531 0.171108 0.158176
22734 5 0.171622 0.243484 0.174128
20354 9 0.257509 0.171031 0.153003
20105 2 0.249533 0.185591 0.168275
22807 5 0.132569 0.242875 0.18051
22727 2 0.147394 0.248881 0.171045
17555 4 0.343006 0.146202 0.165232
20102 1 0.296199 0.14988 0.173557
17554 3 0.346382 0.183963 0.154418
17801 9 0.345353 0.199687 0.155599
17558 3 0.34055 0.234913 0.159416
17552 2 0.347963 0.171267 0.165051
17556 5 0.33002 0.178838 0.172533
20111 5 0.274427 0.180259 0.17007
20084 1 0.303753 0.213317 0.172247
20179 5 0.271072 0.242236 0.171672
17631 5 0.331237 0.24271 0.177242
17559 5 0.371951 0.241013 0.171942
17557 5 0.370285 0.174595 0.170735
17802 9 0.342212 0.241872 0.152306
25284 3 0.00175646 0.147015 0.15841
15247 9 0.449999 0.136562 0.157262
17565 7 0.419905 0.134435 0.156177
17566 7 0.401693 0.145112 0.148567
17564 7 0.419218 0.210318 0.152418
17563 7 0.399779 0.200321 0.146976
14938 7 0.457849 0.19572 0.145647
14937 7 0.478699 0.208719 0.14379
17525 6 0.408996 0.146661 0.155161
17459 1 0.401602 0.150503 0.174627
17526 6 0.403304 0.207352 0.153622
14899 6 0.464274 0.207496 0.141352
15248 9 0.43529 0.171247 0.155285
15002 3 0.445357 0.241741 0.153146
14932 3 0.451059 0.175196 0.156811
15000 2 0.450417 0.236024 0.16514
15003 4 0.453375 0.210767 0.166299
14927 2 0.452697 0.186075 0.168035
15005 5 0.472857 0.244611 0.169761
14933 5 0.475379 0.177128 0.172787
15004 5 0.432426 0.243012 0.173045
17550 1 0.395549 0.209041 0.173115
15008 5 0.434127 0.179337 0.175274
15249 9 0.45381 0.23073 0.148543
14940 7 0.481593 0.15698 0.157191
14924 1 0.498626 0.147609 0.176776
14898 6 0.493644 0.144963 0.156711
14939 7 0.482832 0.132492 0.156304
25237 7 0.0262629 0.0447575 0.246333
17584 6 0.37644 0.244177 0.230578
25471 9 0.0635292 0.0148685 0.245021
25198 5 0.0976137 0.0836582 0.193177
25195 5 0.0947904 0.0221783 0.192517
25268 5 0.0556296 0.0861636 0.196539
25258 1 0.0239227 0.116157 0.197028
25207 1 0.0282759 0.0558524 0.198786
25191 2 0.0790594 0.0902699 0.200849
25263 4 0.0830592 0.114503 0.203238
25197 4 0.0764009 0.0759761 0.210602
25192 5 0.0782691 0.0319072 0.211812
25196 3 0.0373241 0.0513116 0.217894
25190 8 0.0678715 0.0542456 0.219248
25510 9 0.0277826 0.049762 0.224819
25517 7 0.0735172 0.0480092 0.240015
25240 6 0.07954 0.0587281 0.233528
22685 7 0.0852202 0.100015 0.222626
25506 7 0.0762029 0.074455 0.237221
25194 5 0.0541214 0.0198412 0.198274
25189 2 0.078316 0.0175568 0.201468
25308 6 0.0233705 0.107717 0.216477
25272 7 0.0336001 0.112705 0.222108
25201 6 0.0168776 0.0575052 0.245082
25309 7 0.0280715 0.115783 0.239129
25271 7 0.0102596 0.101662 0.219944
22649 6 0.0866717 0.10959 0.228709
22684 7 0.0745243 0.106255 0.233515
25472 9 0.0548345 0.0976983 0.246443
22612 6 0.1206 0.023523 0.235299
22577 7 0.105467 0.0293608 0.237111
22760 7 0.105787 0.112582 0.241067
25270 6 0.0440619 0.117669 0.237054
22687 7 0.115744 0.0662972 0.243774
22635 1 0.123941 0.0556945 0.194766
25205 7 0.0122397 0.0101466 0.22132
22717 6 0.113612 0.114805 0.248072
22759 7 0.124623 0.103442 0.249187
17861 7 0.364034 0.247545 0.236792
25236 7 0.0263093 0.0695942 0.247715
25202 7 0.0771215 0.00211475 0.22263
20045 7 0.220046 0.0011932 0.223702
22652 7 0.123845 0.00979347 0.223834
22918 9 0.150529 0.0201587 0.2477
17580 7 0.326601 0.249933 0.242382
22651 7 0.1252 0.0749728 0.22066
22576 7 0.129871 0.0361355 0.234139
22683 6 0.130823 0.0686766 0.213928
20008 7 0.187551 0.00551054 0.246021
22650 7 0.14673 0.0733707 0.214457
22655 1 0.129693 0.116466 0.194438
20062 7 0.150124 0.0541528 0.242549
22931 9 0.185125 0.00776816 0.214181
22643 5 0.197455 0.0902334 0.193243
20023 6 0.144058 0.0606051 0.235988
20061 7 0.154687 0.0602852 0.229652
22572 5 0.194296 0.0223201 0.194273
20083 1 0.222912 0.118354 0.19403
20029 1 0.22897 0.0576171 0.194803
22642 5 0.155 0.0862988 0.19521
20063 7 0.187212 0.0491734 0.221996
22637 2 0.177972 0.0816641 0.199677
22641 4 0.182603 0.0565267 0.202257
22565 2 0.178088 0.0315427 0.202571
22640 5 0.173865 0.0935483 0.210374
20060 6 0.235075 0.055548 0.215477
20022 6 0.185075 0.0630606 0.225824
20064 7 0.182084 0.0723097 0.219529
22647 5 0.154832 0.0265946 0.198459
22571 3 0.180536 0.0220824 0.214192
22638 8 0.164887 0.11838 0.21727
20024 7 0.24224 0.0696958 0.21797
17471 6 0.22752 0.0219726 0.23329
22954 7 0.172051 0.109227 0.237333
17510 7 0.228497 0.033953 0.228346
22919 9 0.155352 0.0851058 0.246578
17509 7 0.240508 0.0231736 0.23792
20101 7 0.232297 0.0953344 0.230741
20100 7 0.235242 0.0720343 0.235557
22653 7 0.145129 0.013039 0.21619
20135 7 0.201339 0.0581349 0.239426
20134 7 0.219751 0.0437254 0.244649
22688 6 0.178377 0.119657 0.230958
22644 3 0.135072 0.120707 0.213806
20025 7 0.248256 0.0471949 0.213568
22682 6 0.131322 0.00348047 0.216502
22965 7 0.175894 0.135564 0.235375
20133 7 0.210862 0.116344 0.239761
20096 6 0.210022 0.0566184 0.246252
20131 6 0.227815 0.119463 0.21518
20098 7 0.240826 0.123975 0.210773
14913 5 0.494548 0.15215 0.197915
20097 6 0.211585 0.118261 0.247763
20051 3 0.260501 0.0310998 0.248638
20130 6 0.24385 0.0842789 0.232913
17548 7 0.262944 0.114196 0.231302
20366 9 0.260291 0.0844235 0.245903
20016 5 0.25221 0.0264222 0.195974
20095 5 0.253341 0.0874785 0.198281
17456 7 0.313771 0.0625537 0.239976
20020 5 0.294902 0.0895232 0.192408
20017 5 0.293216 0.0230378 0.193175
17477 1 0.328818 0.119615 0.19665
17458 1 0.321602 0.0545857 0.196921
17464 5 0.350374 0.0868675 0.19919
20013 2 0.277023 0.0927668 0.201055
20379 9 0.283874 0.0858986 0.217179
20089 4 0.279375 0.118271 0.203467
20019 3 0.284976 0.0779581 0.210535
20378 9 0.278527 0.0460998 0.21078
17466 6 0.323662 0.0447036 0.21764
17493 7 0.311157 0.0376808 0.220665
17494 7 0.333046 0.0326947 0.216562
14960 7 0.328234 0.071211 0.228379
14918 6 0.331823 0.0851925 0.231094
14959 7 0.341514 0.0902366 0.225392
17469 5 0.35177 0.0274901 0.199061
20014 3 0.276596 0.030326 0.212201
20012 2 0.274623 0.0179016 0.201283
17503 6 0.305951 0.0501956 0.243335
17457 7 0.290377 0.0530454 0.241478
17499 3 0.362536 0.0865221 0.246652
14846 7 0.370639 0.0602167 0.237492
17813 9 0.350264 0.0920461 0.242735
17512 7 0.27216 0.0046457 0.224103
17472 7 0.325728 0.123289 0.224659
17582 7 0.315842 0.104968 0.238405
17544 6 0.308656 0.114615 0.243813
17583 7 0.294365 0.119865 0.239738
17508 6 0.328695 0.126921 0.217283
14847 7 0.375118 0.070397 0.22589
17860 7 0.361272 0.00601392 0.226435
17460 2 0.373292 0.0822997 0.20308
17463 4 0.376186 0.0574356 0.204873
17826 9 0.371719 0.108142 0.214323
17386 2 0.374813 0.0324662 0.203509
17825 9 0.377786 0.0349816 0.220037
17462 3 0.373598 0.0926897 0.214663
14878 6 0.376852 0.0581717 0.230261
17391 3 0.378367 0.022174 0.215039
14845 7 0.406252 0.00732819 0.220405
15272 9 0.472623 0.0106229 0.221025
14840 5 0.493569 0.0854859 0.196025
17465 5 0.391578 0.0887542 0.195107
14906 1 0.423108 0.116928 0.196354
17392 5 0.393345 0.0222385 0.19621
14849 1 0.427833 0.0570491 0.198196
14917 5 0.452936 0.0879811 0.201377
14837 5 0.453778 0.0264894 0.200713
14911 4 0.479153 0.118214 0.203921
14834 2 0.477543 0.0936255 0.204439
14839 3 0.483879 0.085348 0.215909
14955 6 0.416202 0.0581333 0.218262
15273 9 0.479087 0.0972816 0.221138
14922 7 0.425377 0.058157 0.224774
14923 7 0.402149 0.0512792 0.219978
15308 7 0.46632 0.0665299 0.227501
14884 6 0.455803 0.0542396 0.230217
15297 7 0.463857 0.0387423 0.228304
15303 9 0.402886 0.0496523 0.242443
14868 8 0.443796 0.0533825 0.244821
14835 3 0.4817 0.0214427 0.217107
14833 2 0.475326 0.0184507 0.204745
14838 5 0.494254 0.0267015 0.197759
12366 6 0.479901 0.116048 0.23114
14914 6 0.415222 0.115638 0.216608
14941 7 0.407077 0.104747 0.220707
14874 3 0.414087 0.053915 0.248514
14951 6 0.394205 0.125404 0.244652
14905 7 0.383062 0.11305 0.246101
14942 7 0.402573 0.126146 0.21539
15274 9 0.47493 0.170273 0.215596
22958 9 0.122441 0.126194 0.218407
2065 6 0.00523355 0.208195 0.157023
22960 9 0.106408 0.244794 0.238997
22791 6 0.0638169 0.243228 0.232368
22829 7 0.0625005 0.234495 0.238534
25345 7 0.00272837 0.239477 0.219192
25310 7 0.046257 0.131268 0.240291
25347 7 0.0142314 0.156338 0.217892
25348 7 0.0389421 0.155543 0.21572
22830 7 0.050487 0.239395 0.228136
22718 6 0.104742 0.174926 0.246975
25484 9 0.0798591 0.130601 0.219325
25267 5 0.0924826 0.209645 0.195374
25265 5 0.0939244 0.148567 0.19469
25303 3 0.0133983 0.181171 0.246172
25260 2 0.078003 0.139854 0.203142
25264 5 0.0537184 0.145645 0.200615
25332 1 0.0222965 0.242533 0.199098
25276 1 0.0284589 0.178399 0.198737
25342 5 0.0515367 0.207904 0.201349
25337 4 0.0723143 0.241111 0.202935
25261 2 0.0742532 0.216693 0.203532
25266 3 0.0835928 0.212368 0.215313
25262 3 0.0815609 0.145068 0.215312
25485 9 0.0927454 0.198116 0.214807
22720 7 0.104411 0.165771 0.216684
25377 6 0.0273118 0.166266 0.217842
25507 7 0.0641622 0.19645 0.226088
25518 7 0.0638842 0.168637 0.226354
25314 6 0.0645797 0.183847 0.231494
25297 8 0.0439682 0.180317 0.243365
22751 3 0.116765 0.240103 0.245444
22758 7 0.115137 0.174622 0.240884
22757 7 0.0916375 0.172131 0.243479
22756 6 0.116434 0.176324 0.215094
25378 6 0.0177719 0.248507 0.218947
22796 7 0.102103 0.235341 0.220174
22825 6 0.117296 0.241371 0.218307
25512 9 0.00130908 0.181452 0.239739
22706 1 0.122223 0.180287 0.194771
15245 9 0.462994 0.00219723 0.156289
22795 7 0.127369 0.236802 0.224489
20208 7 0.206974 0.214677 0.246163
22719 7 0.126828 0.17507 0.220784
20099 7 0.229286 0.128116 0.221404
22724 1 0.127482 0.242286 0.198109
20169 7 0.224417 0.170763 0.244958
22646 5 0.193442 0.148947 0.19177
22713 5 0.193227 0.211293 0.195349
20103 1 0.228297 0.179352 0.196652
22716 5 0.153557 0.145524 0.194474
20154 1 0.222096 0.241255 0.19667
22722 7 0.148495 0.170933 0.240577
22645 4 0.174619 0.140053 0.208743
22712 5 0.151698 0.212241 0.199925
22639 2 0.175289 0.154765 0.199521
22708 2 0.174862 0.204693 0.202945
22711 4 0.175014 0.179171 0.203444
22710 3 0.183371 0.20971 0.214608
22932 9 0.187024 0.194991 0.218165
20204 6 0.217658 0.241629 0.216851
20092 3 0.235381 0.180669 0.216198
22721 7 0.147691 0.194672 0.239217
20406 9 0.222651 0.184694 0.221386
22745 8 0.148016 0.240981 0.243327
20166 6 0.184325 0.172538 0.226068
20206 7 0.168905 0.176034 0.227907
22755 6 0.143031 0.180627 0.235607
20205 7 0.182653 0.16398 0.219776
22762 6 0.15983 0.238749 0.228996
20203 6 0.211819 0.180408 0.246133
20170 7 0.201607 0.176425 0.240319
20168 7 0.207436 0.230769 0.219648
20167 7 0.229418 0.24071 0.222723
22955 7 0.171024 0.225043 0.227238
20165 6 0.205309 0.230073 0.247017
20207 7 0.221331 0.232896 0.248134
20368 9 0.245679 0.196257 0.247604
17578 6 0.272358 0.127376 0.231539
17549 7 0.275852 0.133182 0.224658
20123 3 0.257211 0.153362 0.248234
14992 6 0.403475 0.226851 0.24708
17618 7 0.285852 0.246808 0.222958
20090 5 0.253778 0.145368 0.196338
17504 3 0.358246 0.15329 0.24527
17473 7 0.344482 0.129098 0.217751
17581 7 0.302917 0.246171 0.236579
20164 5 0.25252 0.217386 0.195472
17571 3 0.354561 0.218711 0.24876
20367 9 0.261193 0.141443 0.243361
17651 6 0.290573 0.232631 0.225901
17617 7 0.286882 0.222235 0.220572
20091 5 0.292597 0.150168 0.193152
20094 5 0.294178 0.212065 0.191919
17531 1 0.323041 0.181002 0.19373
17551 1 0.328868 0.241117 0.19659
17538 5 0.353265 0.21073 0.196285
17543 5 0.353019 0.15009 0.198071
20085 2 0.27622 0.143063 0.20145
20086 8 0.265444 0.182568 0.217573
20087 2 0.275723 0.219594 0.199428
20159 4 0.279869 0.242878 0.203727
20088 5 0.273022 0.157708 0.211174
20093 4 0.27301 0.203127 0.208452
17547 7 0.322185 0.180778 0.221059
17540 3 0.337145 0.243056 0.214587
17579 6 0.323076 0.175781 0.213545
17546 7 0.330337 0.160795 0.214286
20136 6 0.277501 0.183346 0.232155
20413 7 0.27568 0.198011 0.236749
20402 7 0.271002 0.172095 0.237916
17534 8 0.368073 0.244649 0.215927
14996 7 0.362324 0.20156 0.236694
17814 9 0.359403 0.167798 0.241561
17815 9 0.365408 0.22987 0.248648
15026 6 0.369182 0.190698 0.231871
17536 5 0.376539 0.220802 0.209631
17854 9 0.326343 0.237811 0.220441
14997 7 0.375392 0.199279 0.225741
17533 2 0.376221 0.205191 0.199929
14925 1 0.428861 0.179965 0.194993
9777 7 0.46259 0.23718 0.228352
14904 7 0.383594 0.136768 0.241034
9739 6 0.476873 0.243674 0.230039
17827 9 0.378942 0.15876 0.219732
17461 2 0.377026 0.155927 0.202856
17467 3 0.378714 0.147252 0.214161
9776 7 0.481098 0.247528 0.222676
12352 7 0.4862 0.170424 0.244648
14920 7 0.434018 0.182308 0.221945
12353 7 0.491625 0.197196 0.24594
15261 9 0.455347 0.146187 0.243719
12291 6 0.438537 0.15343 0.232473
14915 3 0.474815 0.203859 0.212692
14956 6 0.429541 0.189981 0.215617
14958 7 0.392573 0.18086 0.238676
12408 7 0.465145 0.113429 0.233605
14979 1 0.423908 0.24298 0.192029
17539 5 0.39202 0.208411 0.190605
14912 5 0.452932 0.14952 0.198735
15262 9 0.473297 0.22607 0.243536
12329 7 0.428631 0.142427 0.229486
17468 5 0.395215 0.146135 0.195947
14910 3 0.472843 0.153779 0.216266
14952 3 0.465386 0.214462 0.247362
12407 7 0.476114 0.126509 0.225871
14985 4 0.479504 0.242825 0.203903
17537 4 0.37925 0.180772 0.204019
17850 7 0.391183 0.24498 0.234384
12399 6 0.499343 0.18249 0.24579
15275 9 0.479605 0.213562 0.218409
14916 5 0.492864 0.211169 0.193692
12328 7 0.448856 0.155359 0.227096
14908 2 0.474834 0.143582 0.204561
14991 5 0.452429 0.213036 0.197332
14957 7 0.41785 0.173711 0.239656
15030 7 0.398298 0.213284 0.244014
14919 6 0.405877 0.181707 0.243825
14909 2 0.475138 0.217193 0.202186
14921 7 0.442234 0.199077 0.214922
25227 3 0.0613652 0.0278012 0.249753
20132 7 0.227309 0.115101 0.248841
22686 7 0.0970392 0.0784323 0.248265
25178 3 0.0206274 0.0535986 0.305836
25245 3 0.0138114 0.11532 0.304805
25251 5 0.00982267 0.0523435 0.285961
25246 4 0.0299058 0.0850405 0.292811
25243 2 0.0268628 0.109647 0.294027
25224 1 0.0801976 0.0888604 0.291376
25179 5 0.0519042 0.0533904 0.291893
25173 2 0.0279566 0.0594401 0.29415
25170 1 0.0766051 0.0240161 0.290473
25232 5 0.0727404 0.0892683 0.271738
25230 5 0.0769914 0.0307934 0.268118
22671 1 0.10522 0.058818 0.270337
25171 1 0.0074673 0.0558302 0.264766
25229 5 0.0345506 0.0248658 0.264802
25306 5 0.0324387 0.0857453 0.264055
25226 2 0.0556682 0.0956432 0.263103
25225 2 0.0583042 0.0199091 0.261524
22619 1 0.107851 0.120197 0.267988
25300 4 0.0553157 0.12078 0.262304
25248 5 0.0499654 0.120395 0.293377
22699 5 0.108171 0.117783 0.289601
22624 5 0.111967 0.0572584 0.289236
25247 5 0.0108017 0.115524 0.284983
25496 9 0.0343643 0.0470592 0.309634
25184 7 0.0616173 0.00140225 0.307102
22626 3 0.1223 0.124412 0.309135
25288 6 0.08663 0.0870867 0.311744
25497 9 0.00688138 0.101912 0.30728
22944 9 0.11545 0.111294 0.31058
25294 1 0.00300808 0.118211 0.266336
22280 9 0.215132 0.00353731 0.42581
25218 6 0.0715259 0.0122609 0.309872
25257 7 0.0982535 0.0759089 0.312733
22648 6 0.106888 0.0667468 0.250246
25231 3 0.0626927 0.0876249 0.251461
22623 4 0.128285 0.0252192 0.298072
22622 3 0.123778 0.0597768 0.308629
22620 2 0.129868 0.0505816 0.297065
22681 5 0.134558 0.0278835 0.266307
19999 4 0.224919 0.0483764 0.302819
19993 2 0.23001 0.0640407 0.294153
20068 2 0.23042 0.113855 0.296677
20071 4 0.227211 0.0890072 0.297824
22625 5 0.153912 0.0589648 0.295252
22627 5 0.151074 0.118733 0.294717
22618 1 0.177412 0.0902769 0.292642
20076 5 0.212837 0.0588776 0.285712
22600 1 0.182247 0.0263865 0.2914
22609 5 0.172948 0.0273265 0.271304
22678 5 0.175944 0.0907972 0.271458
19990 1 0.208682 0.0573364 0.267131
22677 5 0.134983 0.0914567 0.268251
20129 5 0.235659 0.0889 0.266042
20053 5 0.230777 0.0227618 0.263068
22602 2 0.1569 0.0352939 0.262575
22673 2 0.156785 0.0852091 0.263553
22676 4 0.158145 0.0601162 0.261957
20119 1 0.205866 0.11851 0.268603
20072 5 0.210623 0.122059 0.290024
22675 3 0.160031 0.0963047 0.252254
19994 5 0.22539 0.00145788 0.303372
22608 3 0.163267 0.0211294 0.252353
19998 3 0.188092 0.0267306 0.310134
22621 2 0.127272 0.126967 0.296839
19992 8 0.219999 0.0252072 0.310739
20070 3 0.225267 0.122089 0.308325
1860 9 0.00281809 0.126931 0.419132
22665 6 0.165431 0.0877751 0.312745
22634 7 0.157755 0.0734165 0.310522
20000 5 0.253205 0.0577027 0.290998
20073 5 0.252305 0.121513 0.291771
20049 2 0.255231 0.0186957 0.259499
20124 4 0.258401 0.118705 0.25859
17440 8 0.314874 0.085173 0.3085
17446 3 0.284153 0.0818185 0.307853
17442 5 0.324167 0.0631221 0.299877
17447 4 0.31953 0.109106 0.300601
17443 4 0.332162 0.0236808 0.293641
17439 2 0.329945 0.0483801 0.290646
20048 1 0.285063 0.0877365 0.288724
19989 1 0.276658 0.0249304 0.287381
17445 5 0.351916 0.0579034 0.287193
17444 5 0.31135 0.0539247 0.282854
20057 5 0.27588 0.0897974 0.271313
17495 1 0.303761 0.0558018 0.263716
17506 5 0.332751 0.0242451 0.265983
20054 5 0.272773 0.0262424 0.267406
17438 1 0.312136 0.118497 0.264302
17501 5 0.334626 0.085613 0.261108
17421 2 0.356082 0.0280699 0.261566
20050 2 0.258915 0.094532 0.262137
17497 2 0.357204 0.0777951 0.257769
17500 4 0.358968 0.0524104 0.257608
17448 5 0.350655 0.118039 0.289004
17502 5 0.373319 0.0895234 0.265939
20040 6 0.282817 0.0173369 0.307259
17524 5 0.311922 0.123248 0.282156
20056 3 0.265252 0.0778915 0.253145
14381 3 0.496141 0.247396 0.428714
17857 9 0.278095 0.0665795 0.310784
14947 3 0.463855 0.152978 0.250112
17441 2 0.327452 0.124836 0.292171
20005 7 0.297613 0.0108929 0.309647
20365 9 0.262226 0.0463639 0.250555
20004 7 0.274688 0.0158651 0.313915
17427 4 0.353072 0.00974683 0.253291
17428 5 0.374347 0.0210902 0.269912
17437 1 0.376471 0.0888434 0.2866
17418 1 0.38302 0.0233307 0.287169
14822 3 0.417596 0.054478 0.306366
14891 4 0.424926 0.0892963 0.29652
14817 2 0.426581 0.0636254 0.295666
14887 2 0.426002 0.113173 0.292247
14823 5 0.450542 0.0558201 0.293511
14893 5 0.45037 0.117354 0.289972
14897 5 0.410914 0.0554829 0.287374
14892 5 0.409777 0.118567 0.28351
14866 1 0.481383 0.0875641 0.29028
14814 1 0.474283 0.0254222 0.291961
14873 5 0.470736 0.0232909 0.270457
14876 5 0.472065 0.0836047 0.270632
14815 1 0.40665 0.0520951 0.266682
14943 1 0.40243 0.119398 0.26503
14954 5 0.429403 0.0854465 0.26577
17412 6 0.385584 0.02052 0.308201
14869 2 0.453854 0.0917447 0.262108
14872 5 0.430439 0.014493 0.267134
14867 2 0.453602 0.0150124 0.262663
14948 4 0.454292 0.116111 0.258762
14860 6 0.484704 0.0834531 0.310414
14870 5 0.451157 0.0311864 0.253314
17380 7 0.39649 0.00775798 0.307408
17379 7 0.39652 0.0326746 0.308832
15286 9 0.42427 0.06204 0.312597
14875 4 0.453044 0.077493 0.252446
14828 7 0.493936 0.0967368 0.310706
25296 2 0.0564336 0.146417 0.262644
25241 1 0.0744057 0.151184 0.291038
25249 3 0.0205547 0.178815 0.304565
25360 6 0.0888533 0.211171 0.309091
25320 4 0.0244642 0.213051 0.294742
25317 2 0.0274268 0.238125 0.293381
25295 1 0.0803594 0.21396 0.288325
25250 5 0.0496584 0.18213 0.289464
25244 2 0.0262714 0.188108 0.293335
25325 5 0.00980344 0.179588 0.285585
25302 5 0.0762985 0.152762 0.269615
25305 5 0.0725249 0.210826 0.268203
22742 1 0.101924 0.179874 0.267169
25301 5 0.0348569 0.154461 0.267297
25242 1 0.0071758 0.180398 0.265399
25376 5 0.032051 0.218113 0.264778
25298 2 0.0553433 0.218412 0.259992
25371 4 0.0600301 0.242491 0.2563
22690 1 0.107664 0.242165 0.263836
22695 5 0.109067 0.183653 0.288142
22773 5 0.108091 0.243757 0.285818
25331 7 0.100791 0.221807 0.307969
25299 5 0.0521561 0.159111 0.252284
25321 5 0.0101151 0.247608 0.285693
25322 5 0.0500276 0.245413 0.289454
22693 3 0.122882 0.178497 0.307541
25330 7 0.0968161 0.19998 0.313334
25289 6 0.0806162 0.150965 0.311174
25499 9 0.0213104 0.23803 0.309994
25304 4 0.0523478 0.202095 0.2513
25255 7 0.0949043 0.143487 0.311885
22945 9 0.114353 0.166365 0.310292
25498 9 0.0122284 0.189325 0.309106
25319 3 0.023853 0.249613 0.304417
25366 1 0.00209318 0.246543 0.264989
22697 3 0.121002 0.248255 0.304622
22920 9 0.159819 0.129122 0.250021
22694 4 0.126921 0.151314 0.293336
22691 2 0.127443 0.176622 0.295239
22748 4 0.15582 0.179068 0.261968
22674 2 0.156691 0.153433 0.261631
22754 5 0.13383 0.146884 0.266044
20202 5 0.232792 0.211678 0.264192
22672 1 0.179949 0.149719 0.289685
20142 4 0.227652 0.212856 0.29287
20147 5 0.212129 0.1798 0.286259
22696 5 0.15146 0.183546 0.293059
20074 3 0.221997 0.18081 0.305875
20069 2 0.228664 0.1885 0.29428
22689 1 0.175803 0.213414 0.289981
20139 2 0.228469 0.237883 0.293591
20067 1 0.207948 0.180986 0.266465
22680 5 0.176033 0.146627 0.268329
22750 5 0.174167 0.213555 0.268433
22749 5 0.130678 0.213628 0.266358
20125 5 0.233971 0.150474 0.264984
22744 2 0.1534 0.204857 0.262744
22737 6 0.184791 0.217995 0.309552
22698 5 0.150962 0.244106 0.291848
20190 1 0.200517 0.241499 0.26588
20143 5 0.210007 0.245039 0.286468
22736 6 0.176917 0.151259 0.310167
20391 9 0.216082 0.135599 0.307676
20141 3 0.220686 0.243017 0.305533
22747 5 0.155124 0.217542 0.25211
22679 3 0.158795 0.144402 0.250082
22703 7 0.198138 0.227241 0.31126
20393 9 0.230818 0.233621 0.310689
20392 9 0.226715 0.192987 0.311163
20144 5 0.252155 0.243003 0.29017
20075 5 0.25329 0.181098 0.292315
20121 2 0.256657 0.144018 0.260108
20122 2 0.255717 0.217629 0.25983
17572 4 0.35958 0.183511 0.257668
20126 5 0.276786 0.150443 0.267229
20066 1 0.277514 0.150122 0.289374
17516 2 0.329815 0.175037 0.294903
17518 3 0.329211 0.18448 0.306574
20114 6 0.283371 0.21414 0.30897
17519 4 0.327515 0.149807 0.294767
17521 5 0.352561 0.180512 0.290454
20120 1 0.281965 0.213973 0.288236
17520 5 0.310073 0.183551 0.288333
17595 5 0.313171 0.245772 0.282784
17567 1 0.302584 0.179762 0.267019
20128 5 0.273821 0.210167 0.267504
17577 5 0.334412 0.150607 0.262083
17573 5 0.330765 0.209026 0.264037
17498 2 0.356752 0.158391 0.257793
17569 2 0.355481 0.207424 0.260451
20196 4 0.258251 0.242512 0.257125
20113 6 0.262975 0.150697 0.308972
17523 5 0.352307 0.244704 0.289321
17515 1 0.30636 0.243745 0.264102
17839 9 0.327355 0.200108 0.306344
17522 3 0.322202 0.23938 0.302336
17530 7 0.364659 0.196145 0.307637
20081 7 0.253958 0.164116 0.307939
20080 7 0.295378 0.223041 0.306678
20082 7 0.253128 0.138673 0.308011
17505 5 0.373615 0.151373 0.266446
17561 6 0.372679 0.209523 0.308074
17838 9 0.3286 0.00124292 0.311107
1291 7 0.00465825 0.141955 0.478914
17574 5 0.372339 0.216002 0.268659
17514 1 0.377375 0.212648 0.287744
15305 9 0.36886 0.146757 0.312922
14890 5 0.418139 0.127843 0.300992
17496 1 0.382771 0.152111 0.286655
15020 4 0.462238 0.246818 0.258906
14945 2 0.455259 0.141503 0.260616
14886 1 0.409441 0.183438 0.263524
14894 3 0.380701 0.150064 0.307113
14972 5 0.411616 0.184779 0.282055
14896 5 0.449973 0.178479 0.287795
14888 8 0.410715 0.151318 0.308847
12342 3 0.483799 0.2115 0.307143
14895 4 0.419243 0.174198 0.300764
14964 2 0.427807 0.237868 0.294657
14967 4 0.425575 0.212213 0.295312
14889 2 0.428176 0.187676 0.29156
14944 1 0.482957 0.213817 0.288211
14885 1 0.475051 0.150324 0.289009
14953 5 0.477302 0.213021 0.267005
14936 6 0.476769 0.153336 0.309027
14950 5 0.473239 0.145353 0.269317
15025 5 0.435997 0.213613 0.261457
14949 5 0.432405 0.151197 0.263641
14946 2 0.460259 0.222154 0.259252
15015 1 0.40462 0.24585 0.265697
14969 5 0.451847 0.240367 0.290832
14968 5 0.410103 0.245164 0.286624
12753 9 0.471299 0.204532 0.311508
14966 3 0.424061 0.249107 0.305915
25183 7 0.0607488 0.0227695 0.313872
25256 7 0.0777775 0.0851549 0.318283
25185 7 0.0643713 0.0616671 0.316985
24544 6 0.0801145 0.0144865 0.337524
24654 7 0.10424 0.0700589 0.337011
24655 7 0.106064 0.0953687 0.335818
24614 6 0.0952469 0.0834086 0.337414
24820 9 0.0193968 0.0626602 0.337291
24550 1 0.0885813 0.0903377 0.357643
24571 2 0.0355274 0.0622171 0.35209
24576 3 0.0259157 0.0515701 0.34131
24577 5 0.0592192 0.0574608 0.355132
24639 2 0.0348203 0.112466 0.3518
24643 4 0.0344941 0.0869951 0.350602
24644 5 0.0172988 0.114868 0.36076
24645 5 0.0569764 0.120852 0.355303
24649 5 0.0197289 0.056478 0.361309
24568 1 0.0858475 0.0281479 0.35638
22022 5 0.120304 0.0602961 0.358619
25186 7 0.0521591 0.0517586 0.326458
25217 6 0.0539562 0.0500599 0.318963
24581 7 0.0765342 0.012149 0.329669
22097 5 0.122351 0.119595 0.35835
1825 7 0.00594612 0.0307926 0.336359
24582 7 0.0674321 0.00547864 0.340435
22633 7 0.15325 0.0989127 0.312894
21945 2 0.138929 0.000829651 0.352818
22266 9 0.137908 0.0121221 0.337179
22943 9 0.122805 0.0462887 0.313445
22024 3 0.130015 0.115949 0.338238
20409 9 0.179605 0.0252202 0.317471
22268 9 0.138229 0.121103 0.332623
22267 9 0.141682 0.0563724 0.334574
22020 3 0.130104 0.0520503 0.339157
22032 7 0.204552 0.0139014 0.334695
22021 4 0.13962 0.0263188 0.354246
20065 6 0.239859 0.0286944 0.322791
22631 7 0.182316 0.0852578 0.326489
22632 7 0.20425 0.0918246 0.331889
19714 9 0.231592 0.0777983 0.336717
22666 6 0.189636 0.0876803 0.333455
19468 3 0.233503 0.109579 0.33871
19398 3 0.228316 0.0621909 0.339426
19466 2 0.238456 0.110997 0.351385
19469 4 0.236395 0.086841 0.355017
19393 2 0.235837 0.0614597 0.351571
19474 5 0.218032 0.0502706 0.357876