ITEM: TIMESTEP
817000
ITEM: NUMBER OF ATOMS
25520
ITEM: BOX BOUNDS pp pp pp
-3.8878568505398775e-01 6.0087329275053662e+01
-1.9444247747944645e+00 5.9114710048793050e+01
-1.2644067076494320e+01 1.1191979948250670e+02
ITEM: ATOMS id type xs ys zs
25182 6 0.0814567 0.0172145 0.15385
25252 6 0.110071 0.0841589 0.153292
25214 3 0.0410308 0.043352 0.159376
25287 5 0.0334191 0.0524185 0.17832
25283 5 0.0715945 0.115235 0.173439
25282 5 0.0303511 0.113667 0.179766
25281 4 0.0457464 0.0833618 0.167116
25277 2 0.0475534 0.108469 0.170729
25215 5 0.073409 0.0531533 0.170648
25209 2 0.0494995 0.0584347 0.168785
25188 1 0.102134 0.0837789 0.173405
25458 9 0.0408087 0.0521978 0.152956
25206 1 0.0962218 0.0200123 0.173648
25293 7 0.116416 0.0692639 0.154555
25457 9 0.0421368 0.0107838 0.159358
2433 1 0.00224233 0.0211591 0.179695
25292 7 0.123252 0.0933895 0.150959
25220 7 0.0694106 0.0265239 0.152249
25219 7 0.0749135 0.00368462 0.157413
25290 7 0.0927524 0.131273 0.148769
22660 5 0.132926 0.051655 0.174641
22735 5 0.131212 0.118322 0.174526
22905 9 0.143934 0.0438104 0.150502
22662 3 0.145512 0.11359 0.153844
22658 3 0.143626 0.055822 0.155801
22656 2 0.151712 0.044944 0.166875
20112 5 0.23242 0.0546076 0.173836
22663 5 0.169688 0.120243 0.169764
22654 1 0.196692 0.086486 0.171361
22661 5 0.174705 0.0524297 0.170416
22659 4 0.152952 0.0198669 0.16501
22563 1 0.204098 0.0212154 0.172722
22629 6 0.212587 0.0203708 0.151892
22630 6 0.196308 0.0867034 0.151156
22667 7 0.210869 0.089076 0.147146
22668 7 0.18812 0.0793753 0.145847
20108 5 0.230616 0.119481 0.173473
22518 7 0.249759 0.085479 0.134661
22482 6 0.237016 0.0913589 0.1375
22517 7 0.240798 0.099292 0.143971
22670 7 0.220711 0.0337369 0.153148
22669 7 0.223856 0.00826905 0.151171
20352 9 0.23621 0.0652901 0.150091
20036 3 0.244432 0.0540078 0.154526
22906 9 0.159641 0.107244 0.151411
20104 2 0.250149 0.112808 0.166322
20031 2 0.250097 0.0627595 0.165759
20107 4 0.252204 0.0880751 0.166099
20118 7 0.325896 0.0761295 0.15213
20117 7 0.321457 0.100716 0.152711
20077 6 0.313415 0.0866873 0.153193
17480 3 0.34752 0.0527969 0.157247
17799 9 0.337948 0.044064 0.15339
17478 2 0.352017 0.0483023 0.16913
20109 5 0.272347 0.119825 0.170411
17482 5 0.332508 0.0588497 0.175067
20037 5 0.272238 0.0537405 0.169329
20011 1 0.303927 0.0880666 0.173596
20028 1 0.297602 0.0251933 0.174612
17481 4 0.349237 0.0233966 0.171272
17484 3 0.347697 0.111215 0.15839
20003 6 0.291001 0.031315 0.154524
17485 5 0.375387 0.123629 0.171865
20042 7 0.283746 0.0252799 0.148215
20041 7 0.280107 0.0438049 0.156665
17483 5 0.373827 0.0564214 0.173425
17560 5 0.33404 0.118884 0.177252
17800 9 0.360857 0.102438 0.157039
17479 2 0.351231 0.125805 0.168463
17489 7 0.378254 0.0713227 0.157786
17490 7 0.40087 0.0710312 0.151905
17451 6 0.390788 0.0803884 0.156054
14856 3 0.447694 0.0492343 0.159765
15246 9 0.447464 0.0606885 0.154049
14929 4 0.445998 0.0858647 0.169701
14926 2 0.450316 0.110707 0.170014
14851 2 0.449927 0.0603781 0.170813
14931 5 0.473408 0.11358 0.173713
14857 5 0.473878 0.0553281 0.174358
17476 1 0.398879 0.0870714 0.176779
14934 5 0.434167 0.0518579 0.178908
14930 5 0.433719 0.118107 0.178481
17384 1 0.402665 0.0238464 0.176768
17450 6 0.407862 0.024672 0.156279
17492 7 0.420051 0.0356863 0.15737
17491 7 0.414325 0.010316 0.15592
14848 1 0.495903 0.0224155 0.177464
14862 7 0.481807 0.0357958 0.155804
14826 6 0.491643 0.022943 0.157126
15245 9 0.456953 -0.000279789 0.156823
2104 7 0.015584 0.207775 0.157355
25280 5 0.0416736 0.124115 0.16182
25291 7 0.0768749 0.128602 0.158229
2033 7 0.0526292 0.146644 0.136907
25253 6 0.0872507 0.13931 0.15487
2032 7 0.0400427 0.170345 0.137536
1995 6 0.037328 0.153043 0.139765
25275 1 0.0952701 0.148875 0.174552
25278 8 0.0317777 0.148323 0.154879
22957 9 0.084364 0.216304 0.152056
22732 3 0.098525 0.213313 0.156444
25285 4 0.0390787 0.171084 0.163339
25359 5 0.0302809 0.181997 0.181903
25356 5 0.0719626 0.240975 0.174646
25354 4 0.0453731 0.210572 0.169184
25351 2 0.048425 0.235559 0.170401
25286 5 0.071773 0.180274 0.174137
25279 2 0.0465534 0.185815 0.17243
25259 1 0.102595 0.213618 0.174712
25355 5 0.0279814 0.244147 0.176712
25394 6 0.0497383 0.20368 0.146388
25432 7 0.048132 0.218497 0.149283
25433 7 0.0491352 0.195139 0.152761
15031 7 0.420835 0.222884 0.2478
25353 3 0.049137 0.246506 0.159288
2065 6 0.000160033 0.205508 0.156474
25284 3 0.00193422 0.146094 0.158227
1933 1 0.00116215 0.146342 0.175881
20106 3 0.24192 0.121392 0.154328
22657 2 0.146828 0.125989 0.165429
20353 9 0.243103 0.137103 0.153566
1963 7 0.146927 0.228989 0.134835
1962 7 0.141416 0.201575 0.134317
22726 8 0.127645 0.216513 0.152561
22730 5 0.131149 0.178176 0.177599
1927 6 0.136954 0.216207 0.137845
22740 7 0.215393 0.159557 0.14946
22741 7 0.208864 0.135841 0.151084
22700 6 0.203413 0.150244 0.152384
22636 1 0.198842 0.148842 0.173341
22729 4 0.143143 0.151269 0.163207
22733 4 0.136824 0.237945 0.160918
20189 7 0.178336 0.215985 0.148532
20148 6 0.189128 0.207467 0.152339
22728 5 0.139609 0.195207 0.160465
22725 2 0.146266 0.176084 0.167759
20178 5 0.228776 0.241092 0.177158
20183 5 0.22989 0.181034 0.175709
22723 1 0.194608 0.212307 0.173364
22731 5 0.168778 0.181866 0.171917
20188 7 0.179481 0.195706 0.155079
20173 2 0.247055 0.237629 0.168659
20177 4 0.243557 0.212141 0.164361
20110 3 0.242584 0.174874 0.156273
22734 5 0.171042 0.243571 0.170974
20354 9 0.244587 0.184768 0.150551
20105 2 0.246762 0.187863 0.167442
22807 5 0.133092 0.246378 0.179661
17555 4 0.346165 0.15037 0.166115
20102 1 0.297321 0.150227 0.173602
17554 3 0.342579 0.189035 0.157916
17801 9 0.342985 0.204794 0.156037
17558 3 0.342978 0.236505 0.154077
17552 2 0.3467 0.175731 0.168072
17556 5 0.327983 0.182082 0.175695
20111 5 0.27164 0.183689 0.170329
20084 1 0.300923 0.211383 0.172958
20179 5 0.272056 0.239236 0.171347
17631 5 0.328848 0.24253 0.17371
17559 5 0.369174 0.244059 0.168856
17557 5 0.369305 0.181921 0.172059
17802 9 0.349688 0.243651 0.147841
17553 2 0.345952 0.249065 0.165066
14928 3 0.449343 0.122288 0.159533
15247 9 0.451288 0.137866 0.158642
17565 7 0.418046 0.137231 0.153353
17566 7 0.393808 0.141785 0.153874
17564 7 0.421692 0.223124 0.151278
17563 7 0.3989 0.230253 0.148055
14938 7 0.461371 0.194976 0.146966
14937 7 0.484713 0.203888 0.144506
17525 6 0.407698 0.149431 0.15556
17459 1 0.401321 0.151331 0.17535
17526 6 0.406583 0.218358 0.151314
14899 6 0.468855 0.205878 0.142872
15248 9 0.433196 0.168876 0.156301
15002 3 0.452617 0.238922 0.155194
14932 3 0.448624 0.175711 0.156983
15000 2 0.451982 0.234804 0.167655
15003 4 0.451068 0.209439 0.167866
14927 2 0.450227 0.184367 0.16846
15005 5 0.473336 0.243466 0.172415
14933 5 0.472928 0.17698 0.172867
15004 5 0.431382 0.243034 0.173392
17550 1 0.396535 0.211327 0.171597
15008 5 0.430345 0.17732 0.175652
15249 9 0.460846 0.226565 0.151658
22614 7 0.118629 0.00402194 0.241881
14898 6 0.499715 0.137222 0.15751
14939 7 0.488896 0.125724 0.158562
17470 6 0.275517 0.00355669 0.232928
25237 7 0.0367969 0.044525 0.24655
25471 9 0.0700447 0.0148641 0.245129
25198 5 0.0948828 0.0838509 0.191178
25195 5 0.0946293 0.0222861 0.193564
25268 5 0.0548213 0.0899867 0.195528
25258 1 0.0258219 0.113822 0.197129
25207 1 0.0294023 0.0536386 0.198093
25191 2 0.0784427 0.09128 0.199754
25263 4 0.0822901 0.116418 0.20259
25197 4 0.0754288 0.0763679 0.209225
25192 5 0.0769352 0.0343776 0.211697
25196 3 0.0361539 0.0545859 0.216873
25190 8 0.0664191 0.0572791 0.21921
25510 9 0.0241306 0.0476368 0.222199
25517 7 0.0761382 0.0514837 0.238966
25240 6 0.0825053 0.060845 0.232496
22685 7 0.0892417 0.102704 0.219718
25506 7 0.0819757 0.077624 0.235597
25194 5 0.0552452 0.0189651 0.199317
25189 2 0.0785911 0.0171167 0.202598
25308 6 0.021804 0.114727 0.217873
25272 7 0.0253004 0.115601 0.225711
25201 6 0.0251153 0.0562816 0.246115
25309 7 0.0363459 0.122842 0.239898
25271 7 0.00552819 0.113181 0.217959
22649 6 0.0889352 0.108404 0.226897
22684 7 0.0733874 0.113703 0.226717
25472 9 0.0586378 0.0994869 0.243715
22612 6 0.118266 0.0255468 0.232531
22577 7 0.105455 0.0336179 0.229776
22760 7 0.106727 0.109738 0.242982
25270 6 0.0524492 0.123849 0.237724
22687 7 0.110787 0.0513697 0.245358
25205 7 0.011111 0.00428684 0.222974
22717 6 0.113456 0.118377 0.24817
25236 7 0.0334393 0.0700327 0.247595
25202 7 0.0835545 0.00171669 0.223851
25227 3 0.0630184 0.0256294 0.249424
22958 9 0.120706 0.115722 0.218215
14861 7 0.497075 0.0229053 0.150087
25231 3 0.0621338 0.0865987 0.248101
22635 1 0.12518 0.0532407 0.193389
20132 7 0.205575 0.104826 0.241312
22652 7 0.127673 0.00724751 0.222017
22651 7 0.138462 0.0647751 0.217552
22576 7 0.128906 0.0359051 0.230224
22683 6 0.133576 0.0508806 0.214214
20008 7 0.182809 0.00382324 0.247478
22650 7 0.14808 0.045544 0.211432
22655 1 0.129278 0.117966 0.193685
20062 7 0.157444 0.0457189 0.242923
22931 9 0.193895 0.0143667 0.214414
22643 5 0.195102 0.0868766 0.19066
20023 6 0.15348 0.0567113 0.238048
20061 7 0.163677 0.0527494 0.231665
22572 5 0.198099 0.0199988 0.195179
20083 1 0.224772 0.117305 0.192499
20029 1 0.228834 0.0568109 0.193712
22642 5 0.154479 0.0808259 0.194427
20063 7 0.188538 0.0477162 0.221423
22637 2 0.177693 0.0804212 0.199014
22641 4 0.180984 0.0559975 0.202523
22565 2 0.179035 0.0305395 0.201397
22640 5 0.175926 0.0959107 0.208245
20060 6 0.22801 0.051532 0.213828
20022 6 0.188864 0.0627802 0.224052
20064 7 0.184213 0.0706592 0.217454
22647 5 0.156297 0.024295 0.197618
22571 3 0.180051 0.0219129 0.213121
22638 8 0.163451 0.116409 0.216361
20024 7 0.22096 0.0588474 0.21969
17471 6 0.222999 0.0192702 0.232355
22954 7 0.147153 0.108316 0.235381
17510 7 0.22726 0.0314256 0.228325
22919 9 0.157221 0.0775775 0.247282
17509 7 0.236776 0.0159044 0.235273
20101 7 0.229493 0.102606 0.223685
20100 7 0.211058 0.0861941 0.226142
22653 7 0.150503 0.00758995 0.216396
20135 7 0.191267 0.0534056 0.2413
20134 7 0.207726 0.0365403 0.245346
22688 6 0.161909 0.116267 0.231997
22644 3 0.134121 0.118009 0.212821
20025 7 0.243521 0.0470851 0.216122
25269 6 0.00434338 0.117748 0.244634
20133 7 0.187078 0.119223 0.246326
20096 6 0.200673 0.0496174 0.247335
20098 7 0.22804 0.139827 0.214964
20097 6 0.201073 0.111237 0.247894
20130 6 0.225211 0.09167 0.228921
9776 7 0.465239 0.248654 0.224989
20051 3 0.257251 0.0302467 0.249531
17548 7 0.257718 0.107279 0.228453
20366 9 0.262561 0.086808 0.245605
20016 5 0.252536 0.0291254 0.197349
20095 5 0.252835 0.0849772 0.198006
17456 7 0.307931 0.0468864 0.239174
20020 5 0.293409 0.0832123 0.193622
20017 5 0.291835 0.0268609 0.194778
17477 1 0.326727 0.117843 0.19653
17458 1 0.323633 0.0553398 0.195806
17464 5 0.352496 0.0897451 0.199141
20013 2 0.276408 0.0892366 0.202335
20379 9 0.276057 0.0863245 0.219349
20089 4 0.278623 0.114941 0.204218
20019 3 0.280684 0.0769327 0.213189
20378 9 0.282462 0.0424465 0.213997
17466 6 0.328329 0.0478908 0.217855
17493 7 0.319363 0.0348021 0.217433
17494 7 0.342288 0.039597 0.217143
14960 7 0.326556 0.0857662 0.224348
14918 6 0.336464 0.0952375 0.228452
14959 7 0.349656 0.0933759 0.22441
17469 5 0.353444 0.0265942 0.200701
20014 3 0.27346 0.0287779 0.213876
20012 2 0.273181 0.0190937 0.202233
17503 6 0.304163 0.0473942 0.2465
17457 7 0.288127 0.0479501 0.246024
17499 3 0.366289 0.0876945 0.247378
14846 7 0.369024 0.0550962 0.240421
17813 9 0.354078 0.0907225 0.24251
17512 7 0.2689 0.0120083 0.226856
17472 7 0.331749 0.118082 0.221165
17582 7 0.319876 0.112882 0.238899
17544 6 0.307254 0.118758 0.243125
17583 7 0.295212 0.11949 0.237781
17860 7 0.363987 0.0126117 0.230293
17463 4 0.375893 0.0570244 0.204168
14878 6 0.374889 0.0527006 0.233274
17578 6 0.269053 0.117773 0.228762
17549 7 0.270585 0.125963 0.222132
17460 2 0.37501 0.0821423 0.203604
17386 2 0.376546 0.0323416 0.204199
17462 3 0.37692 0.0932347 0.214812
14847 7 0.372258 0.0679357 0.230989
17826 9 0.379392 0.108364 0.21454
17825 9 0.387442 0.0374245 0.220318
17391 3 0.383154 0.0245432 0.21588
14845 7 0.404281 0.00320804 0.220226
15272 9 0.47551 0.00918117 0.222144
14840 5 0.495356 0.0875131 0.198656
17465 5 0.392359 0.0887761 0.195234
14906 1 0.425476 0.118631 0.197062
17392 5 0.394477 0.0245433 0.196318
14849 1 0.429676 0.0561834 0.199041
14917 5 0.453981 0.0890734 0.202108
14837 5 0.454187 0.0269346 0.202671
14911 4 0.478082 0.120718 0.207846
14834 2 0.477305 0.0957528 0.206324
14839 3 0.478831 0.0845326 0.217801
14955 6 0.415597 0.0662988 0.218003
15273 9 0.475499 0.0960622 0.223008
14922 7 0.422043 0.0622948 0.225167
14923 7 0.401709 0.073239 0.219954
15308 7 0.465618 0.0591406 0.226493
14884 6 0.452224 0.0503302 0.229827
15297 7 0.456946 0.0340459 0.227648
15303 9 0.4025 0.0562193 0.241643
14868 8 0.445403 0.0545078 0.244918
14835 3 0.483597 0.0200853 0.217792
14833 2 0.476494 0.0170142 0.205683
14838 5 0.495096 0.0256051 0.198886
12366 6 0.475523 0.109151 0.234931
14914 6 0.421056 0.119793 0.218595
14941 7 0.417188 0.104322 0.221428
14874 3 0.415782 0.0602782 0.247361
14951 6 0.401031 0.117088 0.24429
14905 7 0.390961 0.105174 0.242968
12408 7 0.469512 0.0977478 0.239877
12407 7 0.469527 0.122467 0.237672
22966 7 0.164951 0.248508 0.224776
22791 6 0.0620456 0.24985 0.232789
22829 7 0.0589877 0.238086 0.238204
25345 7 0.0119333 0.225729 0.220825
25310 7 0.0588006 0.131204 0.24394
25347 7 0.00682075 0.176328 0.221254
25348 7 0.0198474 0.156573 0.220134
25382 7 0.00492471 0.235759 0.236501
22718 6 0.104476 0.187668 0.246157
25484 9 0.0860168 0.135026 0.219235
25267 5 0.0933762 0.211429 0.195002
25265 5 0.090871 0.15145 0.19395
25303 3 0.0157697 0.17799 0.246207
25260 2 0.0774235 0.140921 0.202922
25264 5 0.053746 0.147558 0.201709
25332 1 0.0218267 0.239555 0.197826
25276 1 0.0290761 0.17738 0.200004
25342 5 0.0528216 0.207384 0.199138
25337 4 0.0754218 0.240712 0.203567
25261 2 0.0751454 0.216027 0.202815
25266 3 0.0806612 0.207148 0.214605
25262 3 0.0849394 0.14869 0.21431
25485 9 0.0912745 0.195218 0.213795
22720 7 0.109334 0.16681 0.217394
25377 6 0.0224755 0.172632 0.220167
25507 7 0.0622152 0.183398 0.22457
25518 7 0.066682 0.156326 0.228658
25314 6 0.0658142 0.172916 0.231434
25297 8 0.0465496 0.178438 0.243717
22751 3 0.112942 0.243774 0.245434
22758 7 0.117849 0.180605 0.244194
22757 7 0.0959295 0.187628 0.239432
22756 6 0.121865 0.17646 0.215789
25378 6 0.0201611 0.238661 0.218129
22796 7 0.104609 0.22734 0.218684
22825 6 0.117685 0.237896 0.217489
25512 9 0.00449849 0.179252 0.23974
22706 1 0.123545 0.181195 0.195517
22795 7 0.130488 0.230493 0.220938
20131 6 0.224624 0.124638 0.213209
22965 7 0.163237 0.130841 0.236482
20208 7 0.215498 0.239174 0.240454
22719 7 0.129538 0.176531 0.223079
20099 7 0.208473 0.127049 0.211336
22724 1 0.131064 0.241265 0.197891
20169 7 0.219751 0.164467 0.247305
22646 5 0.197259 0.148819 0.193215
22713 5 0.194023 0.212168 0.194796
20103 1 0.228169 0.179416 0.194841
22716 5 0.154465 0.14836 0.196136
20154 1 0.224078 0.240858 0.195524
22722 7 0.151269 0.172794 0.242503
22645 4 0.178403 0.14041 0.211469
22712 5 0.155537 0.212384 0.199057
22639 2 0.177073 0.15384 0.201092
22708 2 0.17779 0.203687 0.203391
22711 4 0.175847 0.178854 0.203291
22710 3 0.183873 0.208612 0.215324
22932 9 0.187121 0.194201 0.218903
20204 6 0.222556 0.234743 0.215398
20092 3 0.232501 0.17691 0.213349
22721 7 0.147928 0.193807 0.23858
20406 9 0.218522 0.175153 0.218503
22745 8 0.143379 0.242604 0.242963
20166 6 0.186788 0.171564 0.227429
20206 7 0.171216 0.176729 0.229285
22755 6 0.147039 0.179836 0.235804
20205 7 0.184562 0.159584 0.221871
22762 6 0.156897 0.236667 0.229394
20203 6 0.209748 0.176916 0.247063
20170 7 0.199747 0.173787 0.241213
20168 7 0.212698 0.22135 0.216002
20167 7 0.235343 0.229054 0.219264
22955 7 0.167262 0.222609 0.22851
20165 6 0.209213 0.23735 0.247372
17511 7 0.266714 0.00735658 0.238777
20368 9 0.241293 0.192377 0.249446
20127 3 0.253011 0.202556 0.248892
17508 6 0.329123 0.130156 0.215402
20123 3 0.257085 0.148662 0.247381
17618 7 0.281835 0.242188 0.223907
20090 5 0.251074 0.140931 0.194945
17504 3 0.367942 0.150409 0.249708
17473 7 0.343884 0.13552 0.213331
17581 7 0.305501 0.239003 0.23777
20164 5 0.253874 0.213216 0.196519
17571 3 0.360557 0.210411 0.245175
20367 9 0.263035 0.136577 0.24318
17651 6 0.286087 0.229933 0.228408
17617 7 0.283148 0.21721 0.224066
20091 5 0.291315 0.147966 0.192934
20094 5 0.294906 0.20566 0.194418
17531 1 0.322661 0.178267 0.196013
17551 1 0.327659 0.239204 0.193921
17538 5 0.354034 0.208096 0.193106
17543 5 0.353155 0.149994 0.199329
20085 2 0.272961 0.139049 0.200694
20086 8 0.261664 0.175869 0.218717
20087 2 0.276439 0.213013 0.201719
20159 4 0.278645 0.238653 0.203532
20088 5 0.269821 0.154473 0.210454
20093 4 0.273269 0.197511 0.211099
17547 7 0.339738 0.184908 0.219923
17540 3 0.333559 0.237865 0.213068
17579 6 0.326716 0.18936 0.216612
17546 7 0.316552 0.182896 0.221053
20136 6 0.27613 0.180259 0.232616
20413 7 0.27825 0.197303 0.234643
20402 7 0.267224 0.173481 0.239376
17534 8 0.364117 0.241073 0.216412
14996 7 0.366877 0.187463 0.235735
17814 9 0.370916 0.162223 0.244664
17815 9 0.361554 0.22603 0.243267
15026 6 0.370869 0.179243 0.229479
17854 9 0.323697 0.22473 0.215114
14997 7 0.381569 0.188495 0.225795
17545 6 0.311992 0.246279 0.244402
17536 5 0.372437 0.220672 0.207656
14947 3 0.469771 0.146516 0.248462
14909 2 0.476272 0.216431 0.204797
15030 7 0.401908 0.228131 0.240052
14957 7 0.427565 0.1736 0.239926
14908 2 0.477263 0.146186 0.20532
14921 7 0.44254 0.199773 0.215281
14991 5 0.454428 0.209572 0.199304
17584 6 0.377799 0.245218 0.229925
14919 6 0.413069 0.177401 0.24298
14913 5 0.496017 0.149313 0.196623
14942 7 0.406664 0.126208 0.218675
15274 9 0.482898 0.175809 0.215733
14992 6 0.411292 0.235251 0.245066
17533 2 0.376417 0.203681 0.198676
14925 1 0.429874 0.181241 0.197698
9777 7 0.444838 0.23989 0.228238
14904 7 0.390194 0.129328 0.24324
9739 6 0.459439 0.24032 0.230869
17827 9 0.375511 0.155243 0.220474
17461 2 0.376883 0.154484 0.204017
17467 3 0.378279 0.143758 0.215174
12328 7 0.455324 0.160835 0.225014
12352 7 0.492623 0.172377 0.24238
14920 7 0.431125 0.184478 0.223936
12353 7 0.49075 0.195088 0.247775
15261 9 0.459189 0.154073 0.243788
12291 6 0.445114 0.156632 0.230434
14915 3 0.475616 0.209869 0.216688
14956 6 0.428618 0.192702 0.217239
14958 7 0.402602 0.175101 0.236642
14979 1 0.423861 0.241326 0.194226
17539 5 0.395802 0.208683 0.190923
14912 5 0.454373 0.151168 0.200723
15262 9 0.465036 0.219778 0.245272
12329 7 0.438364 0.144404 0.228023
17468 5 0.397116 0.146087 0.197152
14910 3 0.483 0.159328 0.215905
15275 9 0.470613 0.22214 0.221042
14985 4 0.477456 0.242277 0.204491
17537 4 0.380244 0.180472 0.202694
14916 5 0.495604 0.207858 0.198433
22686 7 0.0925651 0.0654513 0.24915
25178 3 0.0228346 0.0650909 0.304354
25245 3 0.0256946 0.113322 0.30572
25251 5 0.0111494 0.0541156 0.284659
25246 4 0.0291089 0.0888481 0.289551
25243 2 0.0287823 0.113106 0.293296
25224 1 0.0810141 0.0888044 0.288985
25179 5 0.0528702 0.0542109 0.290505
25173 2 0.0291147 0.0630442 0.292517
25170 1 0.0770452 0.0254433 0.289872
25232 5 0.0749 0.0865494 0.268128
25230 5 0.0756258 0.0251317 0.268885
22671 1 0.103298 0.0568061 0.270734
25171 1 0.00794405 0.0571811 0.263506
25229 5 0.0336922 0.0245018 0.264199
25306 5 0.0337157 0.0876024 0.262176
25226 2 0.0576892 0.093434 0.260258
25225 2 0.0580197 0.0181562 0.260919
22619 1 0.109252 0.121652 0.269019
25300 4 0.0592755 0.118904 0.259445
25248 5 0.0514606 0.121485 0.290138
22699 5 0.109965 0.117521 0.290083
22624 5 0.111849 0.0597045 0.29085
25247 5 0.00838195 0.12234 0.287581
25496 9 0.0342067 0.0593224 0.309111
25184 7 0.0588166 0.0134546 0.307342
25288 6 0.0901606 0.0902167 0.309191
25497 9 0.0237649 0.098008 0.308122
22944 9 0.11642 0.109222 0.309238
25218 6 0.068175 0.0254282 0.309711
25257 7 0.103009 0.0804077 0.310702
22648 6 0.106614 0.0592872 0.251879
22622 3 0.129541 0.0609461 0.309596
19407 7 0.190489 0.00346761 0.40158
22626 3 0.128316 0.119073 0.308095
22918 9 0.148255 0.0146189 0.250214
22623 4 0.12837 0.0259867 0.299174
22620 2 0.129975 0.0506931 0.298036
22681 5 0.130986 0.0229153 0.267562
19999 4 0.222795 0.0483502 0.303395
19993 2 0.22819 0.0647637 0.294939
20068 2 0.228541 0.115741 0.295828
20071 4 0.226197 0.0910976 0.296931
22625 5 0.152975 0.0587621 0.293569
22627 5 0.151488 0.11741 0.291633
22618 1 0.176993 0.0902232 0.290598
20076 5 0.209226 0.0593949 0.287397
22600 1 0.182516 0.0268148 0.292438
22609 5 0.171967 0.0270258 0.273771
22678 5 0.173208 0.0903826 0.269152
19990 1 0.205522 0.0551392 0.267601
22677 5 0.131768 0.0905972 0.268763
20129 5 0.232747 0.085656 0.266084
20053 5 0.231053 0.023281 0.26396
22602 2 0.154372 0.0307305 0.265216
22673 2 0.152725 0.0812589 0.263915
22676 4 0.154852 0.0559474 0.264724
20119 1 0.203642 0.11731 0.267782
20072 5 0.208543 0.123565 0.289213
22675 3 0.151797 0.0892885 0.252192
19994 5 0.21981 0.00275832 0.301911
22608 3 0.161586 0.020338 0.254378
19998 3 0.18679 0.0239514 0.31178
19992 8 0.217565 0.0252186 0.3113
22665 6 0.166297 0.0915441 0.311473
22634 7 0.159484 0.0756975 0.311937
22545 2 0.129018 0.000939292 0.296532
22633 7 0.15413 0.100672 0.31199
20000 5 0.250164 0.0573895 0.2902
20073 5 0.25073 0.121817 0.290355
20049 2 0.255047 0.0191922 0.260599
20124 4 0.257069 0.115865 0.259493
17440 8 0.313901 0.0931991 0.309812
17446 3 0.282095 0.0934693 0.308537
17442 5 0.317315 0.0710418 0.300738
17447 4 0.32037 0.113512 0.300608
17443 4 0.328678 0.0296413 0.296042
17439 2 0.325521 0.0540754 0.292805
20048 1 0.281395 0.0915648 0.288945
19989 1 0.275322 0.0289467 0.289039
17445 5 0.349443 0.0580514 0.289852
17444 5 0.309146 0.0559066 0.283056
20057 5 0.272287 0.0869642 0.270844
17495 1 0.304045 0.0559795 0.266661
17506 5 0.331928 0.0239781 0.267567
20054 5 0.272951 0.0266591 0.268662
17438 1 0.310243 0.120438 0.263282
17501 5 0.333257 0.0895313 0.26179
17421 2 0.354708 0.0301535 0.262787
20050 2 0.255551 0.0910945 0.261948
17497 2 0.355905 0.0803067 0.258537
17500 4 0.354453 0.0544182 0.258486
17448 5 0.353772 0.119554 0.288298
17502 5 0.373274 0.0865953 0.266751
20040 6 0.27901 0.0335344 0.309712
17524 5 0.313025 0.123735 0.282242
20056 3 0.260085 0.077524 0.25152
20005 7 0.284868 0.0190408 0.311607
17427 4 0.35376 0.0135624 0.253573
17838 9 0.322168 0.00620224 0.313687
17857 9 0.271569 0.102668 0.31368
20004 7 0.266839 0.0359568 0.314319
17369 2 0.325547 0.00464185 0.296997
25366 1 0.00161684 0.242689 0.263927
17428 5 0.374163 0.0286335 0.270227
17437 1 0.376822 0.0869474 0.286111
17418 1 0.378971 0.0252242 0.289248
14822 3 0.423158 0.0519453 0.305784
14891 4 0.425277 0.0869051 0.295406
14817 2 0.427925 0.0617547 0.294862
14887 2 0.427869 0.111971 0.292226
14823 5 0.45121 0.0548949 0.291657
14893 5 0.451311 0.118701 0.288353
14897 5 0.411319 0.0564873 0.285949
14892 5 0.410487 0.114892 0.283333
14866 1 0.480922 0.08791 0.289115
14814 1 0.475138 0.0249899 0.289496
14873 5 0.47231 0.0225162 0.270055
14876 5 0.476938 0.0840979 0.269509
14815 1 0.41055 0.0558547 0.265948
14943 1 0.405721 0.117116 0.265073
14954 5 0.436608 0.0827328 0.266271
17412 6 0.386991 0.0221289 0.308995
14869 2 0.458704 0.0893045 0.261405
14872 5 0.432794 0.0139392 0.266962
14867 2 0.454667 0.0149602 0.261653
14948 4 0.459105 0.114857 0.258638
14860 6 0.48345 0.0908104 0.310512
14870 5 0.449827 0.0306099 0.252973
17380 7 0.395746 0.00767715 0.308664
17379 7 0.399403 0.0325141 0.309704
14875 4 0.462183 0.0749431 0.251611
15286 9 0.424715 0.0632527 0.311668
25296 2 0.0557123 0.143163 0.263057
25241 1 0.0771938 0.152671 0.290441
25249 3 0.0180238 0.184144 0.304716
25360 6 0.0871257 0.218471 0.306898
25320 4 0.0274863 0.214584 0.293793
25317 2 0.0282126 0.239772 0.291996
25295 1 0.0815362 0.214267 0.287448
25250 5 0.0508428 0.180335 0.29161
25244 2 0.0277077 0.189309 0.293512
25325 5 0.0112327 0.182848 0.285072
25302 5 0.0737765 0.149842 0.271491
25305 5 0.072823 0.212907 0.26822
22742 1 0.101564 0.182064 0.267367
25301 5 0.0320932 0.1447 0.267316
25242 1 0.00607691 0.181808 0.265441
25376 5 0.0311391 0.21513 0.264252
25298 2 0.0544293 0.218891 0.26007
25371 4 0.0546856 0.244289 0.257062
22690 1 0.105247 0.245162 0.264048
22695 5 0.11029 0.185765 0.286856
22773 5 0.10948 0.248117 0.284105
25331 7 0.0971041 0.231446 0.307681
25299 5 0.053796 0.157313 0.252882
25321 5 0.00942716 0.245556 0.284252
25322 5 0.0525204 0.246388 0.289178
22693 3 0.117661 0.183585 0.306878
25330 7 0.0959862 0.205024 0.309687
25289 6 0.0844208 0.145247 0.310387
25499 9 0.0208273 0.240684 0.308297
25304 4 0.0545808 0.202398 0.25099
22945 9 0.115592 0.171149 0.311233
25498 9 0.00887285 0.194636 0.307529
16883 5 0.386833 0.149529 0.468134
22697 3 0.124023 0.245519 0.303246
11802 6 0.495749 0.200738 0.4122
22920 9 0.154875 0.13198 0.251372
20070 3 0.228965 0.128644 0.306599
22621 2 0.129789 0.126581 0.296071
22694 4 0.12827 0.151548 0.294725
22691 2 0.126661 0.176621 0.295209
22748 4 0.156241 0.180514 0.259167
22674 2 0.157598 0.156712 0.262911
22754 5 0.133588 0.151387 0.265796
20202 5 0.233005 0.211377 0.264257
22672 1 0.180909 0.152376 0.290958
20142 4 0.227882 0.211573 0.295995
20147 5 0.2139 0.180078 0.285585
22696 5 0.149961 0.184452 0.293043
20074 3 0.226908 0.173945 0.304958
20069 2 0.231477 0.186754 0.29397
22689 1 0.173928 0.213749 0.288295
20139 2 0.229122 0.236875 0.293946
20067 1 0.208781 0.181313 0.266698
22680 5 0.173473 0.152484 0.2722
22750 5 0.176245 0.212909 0.267231
22749 5 0.131979 0.212787 0.265184
20125 5 0.231673 0.149527 0.262647
22744 2 0.155648 0.20626 0.26048
22737 6 0.182654 0.2156 0.307754
22698 5 0.14923 0.243179 0.287574
20190 1 0.200707 0.242572 0.267593
20143 5 0.210773 0.241288 0.286037
22736 6 0.179758 0.141303 0.311325
20391 9 0.225564 0.143919 0.305491
20141 3 0.223976 0.245823 0.305712
22747 5 0.15411 0.220808 0.250331
22679 3 0.166712 0.141967 0.253144
22703 7 0.179395 0.213875 0.315088
20393 9 0.225155 0.23313 0.310644
20392 9 0.226333 0.185436 0.310536
22705 7 0.17673 0.126189 0.312878
20075 5 0.254132 0.180729 0.289664
17441 2 0.32966 0.126428 0.291325
20144 5 0.253839 0.241165 0.290569
20121 2 0.254808 0.141099 0.259367
20122 2 0.255365 0.216598 0.259351
17572 4 0.360594 0.183706 0.26034
20126 5 0.274497 0.149689 0.265611
20066 1 0.277378 0.151302 0.286344
17516 2 0.330558 0.176038 0.293662
17518 3 0.328444 0.184693 0.305979
20114 6 0.287151 0.216115 0.309203
17519 4 0.328647 0.150958 0.295264
17521 5 0.353195 0.182266 0.288784
20120 1 0.284234 0.214247 0.287789
17520 5 0.31285 0.184857 0.286193
17595 5 0.313942 0.243015 0.285986
17567 1 0.304616 0.181208 0.265587
20128 5 0.275546 0.208502 0.266155
17577 5 0.335138 0.149695 0.26201
17573 5 0.334538 0.213245 0.261901
17498 2 0.358375 0.158062 0.260464
17569 2 0.357296 0.207896 0.257519
20196 4 0.258326 0.241138 0.25705
20113 6 0.270004 0.151178 0.307618
17523 5 0.353609 0.241268 0.290388
17515 1 0.309277 0.241934 0.26519
17839 9 0.321224 0.198793 0.305257
17522 3 0.324512 0.243027 0.305646
17530 7 0.361668 0.200589 0.306893
20081 7 0.263113 0.164194 0.304326
20080 7 0.30262 0.2217 0.308658
20082 7 0.257537 0.141971 0.309147
17561 6 0.375031 0.208913 0.307982
17574 5 0.37504 0.217554 0.264637
17505 5 0.374988 0.14921 0.268414
15305 9 0.377062 0.156116 0.314354
14624 9 0.494401 0.180884 0.42371
17514 1 0.377334 0.212506 0.286756
14890 5 0.42067 0.127259 0.301052
17496 1 0.384402 0.151142 0.287895
15020 4 0.458968 0.242594 0.26111
14945 2 0.458363 0.139835 0.258702
14886 1 0.410247 0.17839 0.263876
14894 3 0.385981 0.152389 0.30752
14972 5 0.413489 0.183209 0.282599
14896 5 0.451944 0.181514 0.288387
14888 8 0.416503 0.150133 0.309538
12342 3 0.481975 0.213301 0.307744
14895 4 0.421337 0.172811 0.300785
14964 2 0.428811 0.238793 0.294925
14967 4 0.428815 0.212523 0.295453
14889 2 0.428914 0.188519 0.291814
14944 1 0.482257 0.213014 0.288755
14885 1 0.476317 0.151476 0.287171
14953 5 0.476217 0.210289 0.268722
14936 6 0.47806 0.147123 0.305924
14950 5 0.473398 0.146787 0.268679
15025 5 0.432417 0.211016 0.262354
14949 5 0.435235 0.149385 0.261063
14946 2 0.457069 0.217663 0.261595
15015 1 0.402582 0.243636 0.265647
14969 5 0.45066 0.245593 0.290739
14968 5 0.409442 0.24522 0.28811
14966 3 0.427519 0.24734 0.306676
14375 7 0.499096 0.196532 0.331403
14901 7 0.489724 0.141094 0.310366
24582 7 0.0707627 0.00862729 0.33194
25183 7 0.0589347 0.0323846 0.315036
25256 7 0.0788351 0.0863097 0.314737
25185 7 0.0712339 0.0684367 0.324004
24544 6 0.0815938 0.0202643 0.333844
24654 7 0.103611 0.065776 0.336976
24655 7 0.101783 0.0916494 0.337548
24614 6 0.0928422 0.0780574 0.3368
24820 9 0.0344277 0.0612157 0.33458
24550 1 0.0882864 0.0873608 0.356555
24571 2 0.0370449 0.0635018 0.351556
24576 3 0.0263895 0.0552176 0.340584
24577 5 0.0578207 0.0519032 0.354764
24639 2 0.0385384 0.114289 0.35288
24643 4 0.0381691 0.0890824 0.349574
24644 5 0.0211739 0.11908 0.36183
24645 5 0.0615541 0.122639 0.356507
24649 5 0.019675 0.059192 0.359932
24568 1 0.0832225 0.0244358 0.354828
22022 5 0.118065 0.0577741 0.357019
25186 7 0.0597472 0.0508281 0.328465
25217 6 0.0582442 0.0605045 0.322051
24581 7 0.0850585 0.0262156 0.327349
22097 5 0.120358 0.120138 0.359136
1825 7 0.00487908 0.028584 0.337364
22943 9 0.124442 0.0493348 0.314568
22266 9 0.130996 0.01242 0.337349
22024 3 0.128403 0.107805 0.34124
20409 9 0.178737 0.0237543 0.319142
22268 9 0.128234 0.113874 0.333958
22267 9 0.140271 0.0580233 0.334277
22020 3 0.130742 0.0486314 0.337788
22032 7 0.205266 0.01119 0.338265
22021 4 0.138392 0.0241868 0.354118
20065 6 0.23734 0.0220678 0.32358
22631 7 0.18087 0.091144 0.327002
22632 7 0.203323 0.0949123 0.333322
19714 9 0.226959 0.0698156 0.336049
22666 6 0.188801 0.0867796 0.333558
19468 3 0.231093 0.114664 0.337328
19398 3 0.231642 0.0565103 0.340151
19466 2 0.238157 0.111933 0.348934
19469 4 0.237927 0.0870284 0.351943
19393 2 0.237334 0.062423 0.35194
19474 5 0.218379 0.0531108 0.359008
22016 1 0.185771 0.0879748 0.353351
22018 2 0.136728 0.0489116 0.350398
22023 5 0.160718 0.0565915 0.352926
22025 5 0.16054 0.120372 0.353275
21925 1 0.187289 0.0244763 0.358587
21991 6 0.196093 0.0241195 0.338675
22031 7 0.207174 0.0352566 0.340943