ITEM: TIMESTEP
160000
ITEM: NUMBER OF ATOMS
25520
ITEM: BOX BOUNDS pp pp pp
-3.5753618289649813e-01 6.0056079772895878e+01
-1.9128740118762386e+00 5.9083159285877244e+01
-1.2579701850337742e+01 1.1185543425634103e+02
ITEM: ATOMS id type xs ys zs
25182 6 0.0990944 0.0294804 0.148301
25293 7 0.110841 0.0688074 0.146259
25292 7 0.116434 0.0914906 0.142853
25252 6 0.104241 0.0840556 0.146822
25280 5 0.0386067 0.121765 0.154588
25214 3 0.038866 0.0426948 0.154331
25287 5 0.031068 0.050217 0.172247
25283 5 0.0703328 0.109821 0.165619
25282 5 0.0284638 0.115056 0.172883
25281 4 0.0435164 0.08201 0.162202
25277 2 0.0447399 0.107435 0.164109
25215 5 0.0695471 0.0513057 0.167674
25209 2 0.0471397 0.0573761 0.163541
25188 1 0.0988698 0.0829729 0.166499
25458 9 0.0456946 0.0283536 0.154163
25206 1 0.0954409 0.0196829 0.168727
25198 5 0.0939886 0.083045 0.187502
25220 7 0.0905369 0.0370327 0.142534
25219 7 0.114113 0.0300284 0.146017
2433 1 0.0014149 0.0186399 0.16975
22735 5 0.130004 0.115756 0.168987
22660 5 0.131202 0.0525184 0.168779
22905 9 0.146921 0.0661295 0.147243
22662 3 0.136359 0.112125 0.148524
22658 3 0.142519 0.0522619 0.14879
20104 2 0.246701 0.107687 0.160332
22656 2 0.14809 0.0449843 0.160736
22657 2 0.144561 0.121194 0.159461
20108 5 0.226798 0.116989 0.166446
20112 5 0.227503 0.0474584 0.167996
22663 5 0.168372 0.114158 0.162725
22654 1 0.1924 0.0869944 0.165987
22661 5 0.17044 0.05451 0.163371
22669 7 0.225959 0.0302584 0.146259
22659 4 0.149414 0.0204425 0.162957
22563 1 0.199028 0.0210765 0.167525
22629 6 0.213244 0.0192074 0.147823
20036 3 0.244175 0.0537453 0.149441
20031 2 0.246638 0.0579677 0.16196
20106 3 0.244302 0.110924 0.147584
22670 7 0.221606 0.00501361 0.14849
22906 9 0.139223 0.123055 0.142945
20107 4 0.243455 0.0827646 0.162781
20352 9 0.258401 0.0573343 0.145922
22643 5 0.194496 0.0848528 0.186351
20353 9 0.255309 0.104049 0.143429
20118 7 0.317842 0.087096 0.146202
20117 7 0.294352 0.0893871 0.142712
20077 6 0.303474 0.0826879 0.148331
17480 3 0.343632 0.0492552 0.151386
17799 9 0.333865 0.0615376 0.150967
17484 3 0.339931 0.107237 0.151373
17478 2 0.345843 0.0441946 0.163987
17479 2 0.344984 0.120986 0.162329
17485 5 0.368405 0.115314 0.165122
17483 5 0.368324 0.0537458 0.167516
17560 5 0.32893 0.114776 0.171046
20109 5 0.269189 0.114034 0.164731
17482 5 0.326497 0.0524229 0.171018
20037 5 0.270674 0.0509559 0.165523
20011 1 0.2987 0.083446 0.168738
20028 1 0.295148 0.0180098 0.169333
17481 4 0.345841 0.018813 0.165435
20003 6 0.298519 0.0137421 0.148245
17413 7 0.35666 0.0289384 0.142207
17378 6 0.363197 0.0162322 0.138776
20042 7 0.302815 0.000455038 0.145177
17490 7 0.371475 0.0967439 0.14725
17489 7 0.377365 0.0735143 0.144665
17800 9 0.337506 0.117939 0.145845
17414 7 0.360367 0.00373125 0.14329
17451 6 0.384927 0.0862928 0.147185
14928 3 0.443484 0.11707 0.149435
14856 3 0.435996 0.0492048 0.152622
15246 9 0.435112 0.0601425 0.146789
14929 4 0.439901 0.0849817 0.162941
14926 2 0.444148 0.110148 0.16151
14851 2 0.441451 0.0598862 0.163451
14931 5 0.467621 0.117275 0.164275
14857 5 0.465426 0.0562284 0.166236
17476 1 0.391432 0.0853331 0.167688
14934 5 0.425773 0.0517146 0.172303
14930 5 0.426621 0.121044 0.168323
17384 1 0.396444 0.0203738 0.171159
14848 1 0.492061 0.0229572 0.169727
17450 6 0.40093 0.0175301 0.149995
17491 7 0.412875 0.0286217 0.148474
17492 7 0.390043 0.0174809 0.143626
14861 7 0.468634 0.0340408 0.152479
14826 6 0.477541 0.0221458 0.150102
14862 7 0.464867 0.01176 0.149071
14832 1 0.496031 0.0833962 0.168135
25291 7 0.101494 0.124189 0.14564
25290 7 0.0802174 0.122547 0.151893
2033 7 0.0382454 0.167922 0.131698
1995 6 0.0297737 0.153299 0.133432
25253 6 0.0903671 0.134005 0.148807
1927 6 0.0915179 0.174328 0.132172
2032 7 0.0137558 0.155156 0.129672
25275 1 0.0942935 0.146048 0.169118
25278 8 0.0256781 0.145508 0.148542
22957 9 0.0881911 0.199413 0.146591
22732 3 0.0976642 0.212177 0.149548
25353 3 0.0364702 0.237211 0.152058
25285 4 0.0347384 0.163895 0.158375
25359 5 0.0287572 0.17884 0.175909
25356 5 0.0684071 0.23507 0.167179
25354 4 0.0420294 0.205336 0.16311
25351 2 0.0440784 0.230218 0.163912
25286 5 0.0690027 0.173783 0.167551
25279 2 0.0445225 0.180447 0.166535
25259 1 0.0982876 0.209511 0.16958
25355 5 0.0279818 0.241671 0.171375
1963 7 0.0918719 0.163384 0.137313
1962 7 0.0760803 0.178462 0.131366
25433 7 0.0554628 0.207715 0.142499
25394 6 0.052909 0.198494 0.136759
25432 7 0.0388102 0.192186 0.138577
22668 7 0.120071 0.149036 0.133393
2104 7 0.00963692 0.211806 0.148599
2103 7 0.012408 0.188333 0.153433
15274 9 0.4775 0.169122 0.204127
12292 7 0.498504 0.0619736 0.211248
25459 9 0.0432427 0.251344 0.150544
22726 8 0.12886 0.212208 0.148335
22730 5 0.12892 0.177023 0.171906
22740 7 0.217546 0.155296 0.144478
22807 5 0.128159 0.245676 0.174268
22630 6 0.135857 0.148425 0.134553
22667 7 0.136473 0.158756 0.140221
22700 6 0.208657 0.142187 0.146087
22636 1 0.199592 0.147479 0.166415
22729 4 0.146436 0.146619 0.15866
22733 4 0.138893 0.23322 0.156425
20188 7 0.21353 0.207669 0.14475
20189 7 0.192086 0.204922 0.139355
22741 7 0.220001 0.13112 0.14655
20148 6 0.1978 0.208471 0.145901
22728 5 0.136838 0.187322 0.154623
20110 3 0.24201 0.173691 0.148957
20177 4 0.245669 0.210489 0.157721
20105 2 0.245727 0.185528 0.160121
20173 2 0.247297 0.235068 0.161735
12399 6 0.49955 0.183503 0.243191
22725 2 0.145369 0.170989 0.162841
20178 5 0.23082 0.238392 0.171191
20183 5 0.228839 0.177942 0.168887
22723 1 0.193534 0.208672 0.166966
22734 5 0.169513 0.24686 0.167215
22731 5 0.168898 0.178605 0.165337
20354 9 0.245124 0.182944 0.143251
22713 5 0.1907 0.210608 0.18641
20103 1 0.226228 0.179849 0.189397
17555 4 0.339793 0.144815 0.158698
20102 1 0.293273 0.145618 0.166655
17802 9 0.340632 0.241766 0.143103
17554 3 0.342122 0.182921 0.148356
17801 9 0.339186 0.197708 0.148083
17558 3 0.340854 0.232761 0.14943
17552 2 0.344595 0.17002 0.159052
17553 2 0.343003 0.248042 0.159482
17557 5 0.36741 0.176835 0.162019
17559 5 0.367156 0.241185 0.162841
17556 5 0.326588 0.178757 0.166593
20179 5 0.271889 0.24013 0.163247
20111 5 0.269441 0.178505 0.163507
20084 1 0.298748 0.20854 0.167013
17631 5 0.327159 0.241461 0.168206
20091 5 0.290319 0.14669 0.185903
20094 5 0.294742 0.208103 0.188169
17538 5 0.349628 0.205599 0.188698
17551 1 0.326224 0.240946 0.188747
17563 7 0.377692 0.225541 0.144171
17564 7 0.371058 0.200961 0.144006
15012 7 0.475559 0.202049 0.139182
14974 6 0.485793 0.213917 0.138741
15247 9 0.430679 0.125566 0.148014
14940 7 0.476638 0.127531 0.146044
14898 6 0.489269 0.138362 0.144964
17566 7 0.396236 0.139564 0.140354
17565 7 0.413683 0.15656 0.144562
17525 6 0.401931 0.146358 0.146919
14939 7 0.485166 0.145927 0.138961
17459 1 0.398155 0.148701 0.166926
14924 1 0.493088 0.145239 0.165365
17526 6 0.383973 0.210625 0.143756
14899 6 0.428589 0.202941 0.133026
14938 7 0.413133 0.203768 0.13474
14937 7 0.435437 0.216123 0.136382
15248 9 0.438021 0.185651 0.142638
15002 3 0.445796 0.246416 0.146224
14932 3 0.439501 0.174275 0.147942
15000 2 0.448799 0.234101 0.157265
15003 4 0.444845 0.209025 0.156525
14927 2 0.446557 0.184299 0.159034
15005 5 0.471054 0.238629 0.162159
14933 5 0.469868 0.179414 0.162153
15004 5 0.430943 0.240644 0.165956
17550 1 0.393701 0.209039 0.164462
15008 5 0.430277 0.175707 0.167883
17539 5 0.388966 0.209164 0.184278
14979 1 0.421061 0.238405 0.184784
17468 5 0.391228 0.141223 0.189296
14916 5 0.492598 0.20775 0.184817
14925 1 0.42511 0.179627 0.188191
15011 7 0.476662 0.227028 0.138825
14913 5 0.490444 0.148261 0.185981
14991 5 0.452241 0.20891 0.189535
22653 7 0.119019 0.00444704 0.216705
20041 7 0.299439 0.0228387 0.141749
25236 7 0.0154718 0.0728537 0.235241
25195 5 0.0969458 0.0226063 0.18908
22635 1 0.121849 0.0520719 0.188015
25471 9 0.0665242 0.0143382 0.238717
25311 7 0.0134042 0.115128 0.231705
25268 5 0.052118 0.0900224 0.191046
25258 1 0.021878 0.114848 0.192749
25207 1 0.0287717 0.0502551 0.193082
25191 2 0.0752428 0.0914406 0.195347
25263 4 0.0790145 0.116221 0.197846
25197 4 0.0723803 0.0758836 0.20426
25192 5 0.074634 0.031312 0.205249
25196 3 0.0345257 0.0525377 0.213102
25190 8 0.0646328 0.0540827 0.21327
25510 9 0.0243417 0.0548357 0.219985
22684 7 0.117949 0.103113 0.218954
25517 7 0.0904271 0.0399996 0.228281
25310 7 0.0865357 0.114919 0.228113
25240 6 0.0810777 0.0552789 0.226531
22685 7 0.109386 0.0820976 0.224011
25506 7 0.0740971 0.0596547 0.234061
22649 6 0.111832 0.0971389 0.225362
25194 5 0.0557309 0.0213464 0.191476
25189 2 0.0781028 0.0154476 0.196021
25201 6 0.0157787 0.0592294 0.238488
25231 3 0.0623165 0.0819253 0.243801
25472 9 0.0641963 0.0931358 0.238756
25227 3 0.0667531 0.0270629 0.243623
25237 7 0.0315846 0.0570596 0.239557
22648 6 0.122755 0.0289571 0.223116
22686 7 0.12133 0.0416852 0.218351
25269 6 0.00666931 0.11329 0.239013
22651 7 0.105082 0.0673334 0.204618
25272 7 0.0362558 0.117902 0.218993
25308 6 0.026052 0.121531 0.213519
22683 6 0.120319 0.0662519 0.207427
25200 6 0.0068821 0.003057 0.240534
22760 7 0.111439 0.12 0.236075
20083 1 0.222156 0.115592 0.188107
14957 7 0.431579 0.169114 0.243154
22655 1 0.127409 0.113881 0.188521
20029 1 0.227602 0.0526287 0.189813
22642 5 0.153 0.0775477 0.189587
22572 5 0.19261 0.0237243 0.186178
22931 9 0.176748 0.00859579 0.210573
22687 7 0.137422 0.0297059 0.226822
22644 3 0.134258 0.121252 0.207736
22919 9 0.163406 0.102812 0.244944
22918 9 0.162873 0.0298719 0.244131
20063 7 0.19211 0.0209717 0.223372
22637 2 0.175898 0.0775219 0.193885
22641 4 0.178514 0.0527895 0.197931
22565 2 0.176967 0.0277432 0.19591
22640 5 0.171955 0.0943469 0.203279
22650 7 0.122296 0.0802319 0.211129
20024 7 0.235298 0.0522131 0.215774
20060 6 0.226948 0.0613111 0.210878
22638 8 0.163985 0.117566 0.211101
20023 6 0.160277 0.0494253 0.234534
22688 6 0.170913 0.109948 0.226215
22954 7 0.174415 0.0936912 0.228002
20135 7 0.229934 0.0464081 0.247535
20061 7 0.165326 0.0623041 0.238914
20062 7 0.174483 0.044646 0.231248
20022 6 0.201505 0.032486 0.2258
17509 7 0.236567 0.0253174 0.228261
20064 7 0.2046 0.0395773 0.219071
22647 5 0.152628 0.0238775 0.193533
20134 7 0.212204 0.0475559 0.238037
20096 6 0.217258 0.0562231 0.244833
20133 7 0.191482 0.11828 0.242738
22675 3 0.170129 0.0895873 0.246756
22571 3 0.186691 0.0147978 0.205328
17471 6 0.251506 0.0240237 0.225665
20009 7 0.204748 0.00842969 0.237323
20025 7 0.233665 0.0760026 0.211164
20097 6 0.204511 0.123771 0.246177
17510 7 0.259158 0.0303162 0.231752
20016 5 0.252217 0.0234285 0.192137
20017 5 0.290049 0.0190761 0.188336
20020 5 0.292061 0.0820452 0.190606
17477 1 0.325917 0.114526 0.1913
20366 9 0.248428 0.0850312 0.244036
17458 1 0.318981 0.0532787 0.191896
20095 5 0.251541 0.0821343 0.191258
17464 5 0.349745 0.0850223 0.194039
20056 3 0.262999 0.0903081 0.246775
20013 2 0.271803 0.0913848 0.196809
20379 9 0.263512 0.0689349 0.20924
20089 4 0.274715 0.116795 0.197785
20019 3 0.272076 0.0829719 0.208803
20378 9 0.26848 0.0283227 0.212607
17472 7 0.307104 0.11503 0.215621
17508 6 0.321431 0.113795 0.211965
17466 6 0.320974 0.0478234 0.211944
17493 7 0.307263 0.039704 0.21266
17494 7 0.320744 0.0572526 0.218201
17473 7 0.329947 0.103289 0.216558
14960 7 0.345649 0.0739711 0.219257
17548 7 0.279499 0.106499 0.217644
17578 6 0.27937 0.121434 0.220127
14918 6 0.335649 0.0784107 0.224875
14959 7 0.345571 0.0854053 0.230019
17469 5 0.349009 0.0224587 0.195868
17544 6 0.307851 0.124329 0.241864
17456 7 0.290938 0.0795408 0.241299
17457 7 0.313875 0.0702342 0.237621
20014 3 0.279571 0.0296033 0.20692
20012 2 0.273187 0.0149987 0.196965
17503 6 0.302073 0.0681412 0.243513
20051 3 0.268315 0.0336206 0.246324
17499 3 0.35809 0.0932569 0.242705
20365 9 0.28292 0.0399909 0.247536
17427 4 0.354812 0.0130687 0.247861
17583 7 0.297588 0.121493 0.236214
17386 2 0.373031 0.028791 0.197939
17582 7 0.321173 0.11745 0.238367
17463 4 0.373718 0.0534686 0.1957
17860 7 0.363136 0.00721781 0.22241
17460 2 0.373499 0.0785125 0.196914
17813 9 0.371974 0.101424 0.242107
17462 3 0.377741 0.0839202 0.209019
17465 5 0.390154 0.087471 0.188889
14840 5 0.487984 0.0860787 0.18761
17391 3 0.379985 0.0246674 0.209707
14906 1 0.418912 0.11692 0.189697
14838 5 0.487477 0.0228491 0.189538
17825 9 0.389857 0.0118306 0.210476
17392 5 0.387709 0.0186715 0.1896
17826 9 0.390335 0.0748963 0.211743
14849 1 0.42317 0.0533617 0.192531
14875 4 0.460041 0.0776467 0.247458
14917 5 0.447097 0.0824571 0.194208
14837 5 0.448615 0.0232062 0.194958
14911 4 0.467358 0.117286 0.19582
14834 2 0.470068 0.0919227 0.195905
14942 7 0.424983 0.11054 0.214729
14839 3 0.477835 0.0839794 0.207186
14914 6 0.41346 0.115278 0.209608
14955 6 0.413547 0.0564633 0.212843
15273 9 0.480564 0.0975778 0.211925
14922 7 0.422837 0.0570488 0.219968
14941 7 0.399504 0.104525 0.210927
14923 7 0.403392 0.0444101 0.214805
15308 7 0.459166 0.0694113 0.219556
12291 6 0.438932 0.119388 0.228618
14884 6 0.454823 0.0551398 0.224016
15297 7 0.466149 0.0431341 0.220776
12366 6 0.481735 0.118826 0.221219
12328 7 0.44401 0.123478 0.235844
15303 9 0.412151 0.0799575 0.242141
14868 8 0.447621 0.056815 0.238884
14951 6 0.399844 0.120538 0.239985
14904 7 0.407763 0.121795 0.232896
14835 3 0.479471 0.0242234 0.209154
14874 3 0.418632 0.0635801 0.242917
14833 2 0.471173 0.0140272 0.197764
14870 5 0.455516 0.0337741 0.246858
12408 7 0.465871 0.117432 0.223621
15272 9 0.481917 0.0116093 0.214048
22958 9 0.124233 0.133017 0.211864
22717 6 0.115107 0.126193 0.242975
25270 6 0.0713039 0.118289 0.22775
25381 7 0.00229689 0.230342 0.231332
25267 5 0.0927464 0.204802 0.19042
25345 7 0.00817952 0.243821 0.21213
25309 7 0.0677158 0.1233 0.234887
25265 5 0.0923454 0.148308 0.190261
22706 1 0.122193 0.176739 0.189187
25271 7 0.0326173 0.134326 0.209764
25348 7 0.0246545 0.196655 0.215089
25484 9 0.0761127 0.13538 0.216231
25347 7 0.00484263 0.184181 0.213404
25512 9 0.0071033 0.176577 0.23407
22829 7 0.0627687 0.234549 0.231566
22791 6 0.0594373 0.244464 0.225931
25304 4 0.0558571 0.203468 0.24621
25346 7 0.0324947 0.238832 0.218724
22751 3 0.115995 0.240489 0.239789
25303 3 0.018183 0.175883 0.240495
25260 2 0.0757635 0.140123 0.199173
25378 6 0.0205549 0.232809 0.213776
25264 5 0.0513663 0.146304 0.197744
25332 1 0.021236 0.238201 0.193053
25276 1 0.0274092 0.176722 0.193331
25342 5 0.0519508 0.205123 0.194668
25337 4 0.0744025 0.240061 0.195215
25261 2 0.0747895 0.21482 0.197435
25266 3 0.0821742 0.212053 0.209439
25262 3 0.0818553 0.146119 0.211312
25485 9 0.075475 0.223689 0.213577
22720 7 0.109714 0.181844 0.211979
25377 6 0.0209255 0.181073 0.213763
25507 7 0.0677704 0.189609 0.220475
25518 7 0.0691939 0.161489 0.22261
25314 6 0.0688681 0.176775 0.226896
25297 8 0.0489847 0.179317 0.23921
22757 7 0.0967713 0.178007 0.237613
22825 6 0.119088 0.243941 0.212329
22758 7 0.12132 0.184665 0.237679
22718 6 0.107156 0.184901 0.242337
22795 7 0.107978 0.231549 0.21079
25299 5 0.0569382 0.158151 0.247011
22756 6 0.124138 0.175713 0.210536
22646 5 0.194362 0.148334 0.186911
20090 5 0.249241 0.141312 0.188911
20131 6 0.220285 0.123032 0.208073
20132 7 0.215502 0.119333 0.240478
22759 7 0.128141 0.134103 0.240789
20098 7 0.222224 0.120768 0.215704
20130 6 0.236406 0.127845 0.229542
20099 7 0.207553 0.133859 0.208497
20100 7 0.239678 0.136515 0.235518
20101 7 0.252189 0.124695 0.226885
20154 1 0.224156 0.241072 0.188958
22716 5 0.152289 0.142241 0.189148
22965 7 0.155817 0.111433 0.230958
22724 1 0.126285 0.241854 0.192477
22719 7 0.133447 0.180007 0.216459
22722 7 0.153094 0.196044 0.238634
22645 4 0.175583 0.139784 0.203789
22747 5 0.156178 0.223388 0.246973
22712 5 0.149773 0.211557 0.192512
22639 2 0.174028 0.1528 0.19379
22708 2 0.173127 0.203578 0.194665
22711 4 0.17364 0.177668 0.195128
22710 3 0.181717 0.210734 0.205773
22932 9 0.182723 0.197508 0.210505
20167 7 0.206103 0.227074 0.210488
20204 6 0.218428 0.237362 0.20958
20092 3 0.233579 0.174314 0.209566
22721 7 0.152158 0.171889 0.23599
20406 9 0.22134 0.171715 0.215097
22762 6 0.163535 0.232942 0.224814
22966 7 0.170895 0.217285 0.225529
22745 8 0.146705 0.243318 0.237543
20166 6 0.185332 0.177961 0.219648
20206 7 0.171005 0.18044 0.223251
22755 6 0.146945 0.185548 0.232781
20205 7 0.181798 0.165421 0.215278
22955 7 0.154351 0.231627 0.217791
22920 9 0.177279 0.143659 0.244735
22679 3 0.162499 0.148477 0.245413
20169 7 0.242187 0.234387 0.224581
20164 5 0.253337 0.20851 0.190268
14905 7 0.386321 0.128722 0.238362
17531 1 0.321498 0.178245 0.188132
17549 7 0.276135 0.128022 0.213216
20203 6 0.258277 0.232164 0.226298
20170 7 0.263142 0.225935 0.219451
20368 9 0.259608 0.217588 0.239011
17543 5 0.349491 0.144319 0.193825
17814 9 0.354596 0.135311 0.245831
20123 3 0.256342 0.160527 0.247463
20367 9 0.256352 0.176641 0.248099
17504 3 0.367136 0.143391 0.248691
20085 2 0.272119 0.140523 0.193861
20086 8 0.264165 0.175502 0.212101
17815 9 0.368799 0.201366 0.24034
20087 2 0.275429 0.213985 0.195315
20159 4 0.2764 0.239357 0.197446
20088 5 0.271824 0.154687 0.203479
20093 4 0.273002 0.199472 0.204921
17547 7 0.340076 0.16295 0.208098
17536 5 0.371314 0.216919 0.202995
17540 3 0.332147 0.237408 0.2066
17579 6 0.324083 0.162979 0.208546
17534 8 0.361251 0.238966 0.211037
17546 7 0.322389 0.149484 0.212218
20136 6 0.274235 0.172569 0.226833
20413 7 0.277836 0.188421 0.230451
20402 7 0.268002 0.164025 0.23339
17545 6 0.325135 0.242105 0.242774
20127 3 0.261788 0.20717 0.245229
17571 3 0.363845 0.213314 0.244835
17580 7 0.335424 0.228425 0.242993
14996 7 0.37343 0.159157 0.233151
17584 6 0.370913 0.244962 0.225214
14995 7 0.403516 0.220379 0.204814
17617 7 0.288853 0.250019 0.22648
17533 2 0.372898 0.20151 0.193275
17850 7 0.363865 0.237013 0.231997
17854 9 0.319779 0.239954 0.211998
12329 7 0.437844 0.132145 0.225255
14919 6 0.420288 0.181248 0.241486
15262 9 0.451006 0.201645 0.243392
15275 9 0.466358 0.196952 0.207346
15026 6 0.381681 0.169337 0.229236
14997 7 0.382483 0.162491 0.222516
17461 2 0.373205 0.151934 0.196352
15261 9 0.474302 0.160369 0.242939
14952 3 0.462862 0.211594 0.245311
14909 2 0.475733 0.214476 0.193209
14992 6 0.407782 0.246264 0.242342
15030 7 0.415354 0.239368 0.236529
14921 7 0.439114 0.170552 0.209575
14908 2 0.471181 0.142241 0.194086
12407 7 0.479912 0.129574 0.21541
14956 6 0.428245 0.182964 0.208283
17467 3 0.377223 0.147567 0.208751
12353 7 0.486655 0.193001 0.24138
17827 9 0.390604 0.138494 0.20922
14910 3 0.469616 0.154641 0.20557
14994 7 0.427116 0.219884 0.209296
15027 6 0.41819 0.229262 0.205223
14912 5 0.450402 0.148969 0.188374
14958 7 0.408343 0.176574 0.236581
17537 4 0.377026 0.176402 0.194827
14920 7 0.423829 0.183762 0.215938
14915 3 0.480104 0.203443 0.204615
14947 3 0.459899 0.153299 0.243743
14985 4 0.479369 0.240128 0.194583
22960 9 0.104384 0.23577 0.234023
12257 7 0.501832 0.00283191 0.234503
22613 7 0.119526 0.007658 0.23677
25371 4 0.0597141 0.245816 0.248755
25178 3 0.0207523 0.0515522 0.29703
25245 3 0.0313408 0.120319 0.300575
25251 5 0.014996 0.0577737 0.277975
25248 5 0.0556091 0.119546 0.285667
25247 5 0.0121155 0.120108 0.28232
25246 4 0.0336913 0.0861541 0.286803
25243 2 0.0324805 0.111467 0.288804
25224 1 0.0850584 0.0890085 0.283281
25179 5 0.0566935 0.0538648 0.285652
25173 2 0.0325916 0.061208 0.286817
22624 5 0.114643 0.0605863 0.283362
22699 5 0.115986 0.116595 0.283745
25170 1 0.0809626 0.0276914 0.284468
25232 5 0.0798208 0.0869833 0.261917
25230 5 0.0790082 0.0290153 0.263502
22671 1 0.108146 0.0579813 0.2619
22619 1 0.113408 0.120126 0.262989
25171 1 0.0107375 0.0562277 0.258669
25229 5 0.0385635 0.0264631 0.259373
25294 1 0.00751744 0.118037 0.260092
25306 5 0.0369948 0.0835507 0.259093
25226 2 0.0587305 0.0919863 0.255586
25225 2 0.0623123 0.0199343 0.255199
25300 4 0.0596518 0.117197 0.253666
25496 9 0.0229589 0.0350177 0.2968
25288 6 0.0939998 0.0968959 0.304338
25218 6 0.0831121 0.0213806 0.305118
25257 7 0.106458 0.10668 0.305465
25256 7 0.0991083 0.0821472 0.305816
25497 9 0.0293198 0.10671 0.305173
25183 7 0.0732569 0.0201892 0.311272
25184 7 0.0972393 0.0220818 0.309051
22943 9 0.125138 0.0458333 0.307491
25174 3 0.0239184 0.00609676 0.298946
1860 9 0.00103002 0.136452 0.418237
22626 3 0.124645 0.131391 0.302876
22622 3 0.125845 0.0583393 0.303059
22623 4 0.130854 0.0274677 0.291031
22681 5 0.137802 0.0314731 0.261766
22620 2 0.1322 0.0526739 0.29119
19999 4 0.22537 0.0467227 0.300314
19993 2 0.230142 0.0646117 0.292195
20068 2 0.231276 0.115316 0.294661
20071 4 0.227591 0.0897639 0.295077
22625 5 0.155799 0.0609967 0.289679
22627 5 0.156353 0.118408 0.289611
22618 1 0.179149 0.0901844 0.286804
20072 5 0.211951 0.125437 0.288177
20076 5 0.21388 0.061129 0.282741
22600 1 0.186439 0.0267982 0.288213
22609 5 0.177367 0.026143 0.269996
22678 5 0.179394 0.0934234 0.267089
20119 1 0.209116 0.125907 0.26656
19990 1 0.214437 0.0605786 0.264854
22677 5 0.138279 0.0900998 0.260848
20129 5 0.235968 0.0910019 0.262098
20053 5 0.238104 0.0315422 0.25917
22602 2 0.162572 0.0340427 0.260892
22673 2 0.162778 0.0837183 0.258931
22676 4 0.166219 0.0589395 0.258782
19998 3 0.18865 0.0208079 0.307063
19992 8 0.219543 0.0228284 0.307905
19994 5 0.224314 0.00350332 0.297649
20391 9 0.238636 0.116653 0.310956
22545 2 0.131886 0.00292188 0.288652
20070 3 0.23222 0.126838 0.305932
20409 9 0.177866 0.016939 0.313594
22608 3 0.16684 0.020316 0.250318
20073 5 0.252953 0.122399 0.289353
20000 5 0.252884 0.0584989 0.287017
20124 4 0.258392 0.125067 0.25903
17448 5 0.354412 0.119287 0.286421
17440 8 0.319011 0.0891383 0.307639
17446 3 0.287945 0.0909554 0.305857
17442 5 0.323894 0.0669997 0.298697
17447 4 0.324735 0.110453 0.298041
17443 4 0.329724 0.0283779 0.291213
17439 2 0.329399 0.053097 0.289076
20048 1 0.28214 0.092622 0.286741
19989 1 0.279289 0.0277668 0.285118
17445 5 0.352324 0.0609793 0.285679
17444 5 0.312212 0.0598122 0.280691
20057 5 0.275511 0.091551 0.266584
17495 1 0.306137 0.0616707 0.264796
17506 5 0.334653 0.0288085 0.261603
20054 5 0.278033 0.0274156 0.265339
17438 1 0.309976 0.121794 0.262154
17501 5 0.335126 0.0908946 0.258548
17421 2 0.35782 0.0314482 0.255805
20050 2 0.259073 0.0996685 0.258386
20049 2 0.260632 0.0208545 0.256619
17497 2 0.356723 0.0820046 0.253886
20040 6 0.27939 0.0309246 0.30522
20004 7 0.266634 0.0334138 0.310468
20005 7 0.292205 0.0332911 0.310492
17500 4 0.359421 0.0568232 0.253662
17857 9 0.277652 0.0895443 0.312638
17369 2 0.331134 0.00285211 0.29109
17502 5 0.376392 0.0895822 0.260858
17437 1 0.377492 0.0905197 0.282123
17428 5 0.376013 0.0252916 0.264375
17379 7 0.38463 0.0331031 0.309222
14860 6 0.492412 0.0903142 0.306223
15286 9 0.416664 0.0430495 0.301196
14822 3 0.427732 0.0550745 0.301436
14891 4 0.428646 0.0885994 0.289252
14817 2 0.431158 0.0629436 0.289556
14887 2 0.429087 0.113466 0.287611
14823 5 0.454831 0.0557869 0.285819
17418 1 0.382002 0.0274018 0.283523
14893 5 0.453076 0.119917 0.28498
14897 5 0.412432 0.0549298 0.282967
14892 5 0.411104 0.117243 0.278857
14866 1 0.483194 0.0890245 0.285947
14814 1 0.47973 0.0249973 0.284069
14873 5 0.473643 0.0231366 0.265094
14876 5 0.477039 0.0858354 0.264649
14815 1 0.409775 0.0551168 0.261722
14943 1 0.40599 0.118271 0.260525
14954 5 0.436261 0.0849337 0.261031
17412 6 0.393025 0.0262343 0.303215
14869 2 0.458932 0.0928337 0.257131
14872 5 0.431912 0.0165832 0.259699
14867 2 0.456189 0.0167689 0.255993
17380 7 0.402085 0.0144555 0.305895
14948 4 0.459158 0.1173 0.254143
25296 2 0.0594033 0.141839 0.25606
25241 1 0.0813925 0.151473 0.283939
25249 3 0.0256924 0.180741 0.29806
25360 6 0.0845396 0.22391 0.301299
25320 4 0.0288893 0.214613 0.28643
25317 2 0.029196 0.239513 0.285712
25295 1 0.084878 0.215966 0.280767
25250 5 0.055888 0.183258 0.283908
25244 2 0.0323361 0.189689 0.28613
22695 5 0.114906 0.18575 0.282582
22773 5 0.115462 0.246024 0.279708
25325 5 0.0158832 0.179553 0.278408
25302 5 0.0772228 0.149869 0.264036
25305 5 0.0766692 0.218471 0.262198
22742 1 0.105396 0.184091 0.262248
22690 1 0.11105 0.247312 0.259121
25301 5 0.035244 0.141956 0.259655
25242 1 0.00972106 0.178621 0.259038
25376 5 0.0332586 0.220763 0.257893
25298 2 0.0575557 0.222245 0.254307
25289 6 0.0760269 0.15957 0.304615
25254 7 0.0904341 0.164758 0.308175
25366 1 0.00525401 0.244206 0.257292
25330 7 0.0707348 0.230236 0.304531
25331 7 0.0937653 0.236474 0.301119
25498 9 0.0380537 0.173671 0.300947
22952 7 0.120268 0.220901 0.309696
22693 3 0.123869 0.178242 0.302064
25255 7 0.0741411 0.147734 0.309832
25322 5 0.0522013 0.246592 0.282158
25321 5 0.0113371 0.248414 0.278855
1336 3 0.00454832 0.124797 0.423912
25495 9 0.034825 0.00398165 0.304494
22621 2 0.133298 0.128058 0.291179
22944 9 0.122913 0.147446 0.304275
22945 9 0.130379 0.19007 0.306027
22704 7 0.205805 0.143124 0.305806
22694 4 0.133823 0.152448 0.28739
22691 2 0.132693 0.178062 0.290118
22748 4 0.164237 0.184728 0.254737
22674 2 0.159959 0.159123 0.257177
22754 5 0.136232 0.152271 0.260033
20202 5 0.23683 0.214799 0.25983
22672 1 0.184617 0.155184 0.286744
20142 4 0.232144 0.216566 0.289569
20147 5 0.212914 0.181139 0.28538
22696 5 0.154874 0.188474 0.288576
20074 3 0.223059 0.190073 0.303828
20141 3 0.223921 0.244859 0.302486
20069 2 0.231925 0.191963 0.292284
22698 5 0.156066 0.244321 0.284
22689 1 0.180773 0.217016 0.285165
20392 9 0.213464 0.177169 0.304972
20139 2 0.232903 0.241435 0.290454
20143 5 0.215815 0.250385 0.282059
20067 1 0.211061 0.187275 0.263927
22680 5 0.178664 0.152666 0.265111
22750 5 0.17937 0.217297 0.263426
20190 1 0.206924 0.247304 0.262539
22749 5 0.136304 0.21142 0.261418
20125 5 0.238022 0.161029 0.264502
22744 2 0.159388 0.209038 0.257008
22737 6 0.181202 0.213755 0.30599
22736 6 0.193109 0.153016 0.307577
22703 7 0.194024 0.203586 0.306231
20393 9 0.225752 0.231707 0.306261
17524 5 0.313924 0.124211 0.280863
17441 2 0.331421 0.126611 0.289619
20082 7 0.289309 0.124809 0.306341
20081 7 0.305591 0.14419 0.306156
17572 4 0.362959 0.18144 0.256121
20126 5 0.278265 0.158241 0.26496
20075 5 0.255922 0.184411 0.291027
20066 1 0.280636 0.153036 0.287184
17516 2 0.332635 0.176827 0.292451
17518 3 0.330116 0.184041 0.304685
17522 3 0.327749 0.245125 0.302955
20079 7 0.302133 0.201422 0.306329
20114 6 0.290564 0.212818 0.306422
17519 4 0.3316 0.1517 0.292964
17521 5 0.356309 0.184268 0.28884
20120 1 0.284644 0.214508 0.285729
17523 5 0.355018 0.243978 0.287058
17520 5 0.312567 0.185744 0.286831
17595 5 0.31405 0.242022 0.283859
17567 1 0.307206 0.184205 0.264302
20128 5 0.277722 0.212788 0.263634
17515 1 0.310035 0.244577 0.262342
17577 5 0.336575 0.155267 0.261845
17573 5 0.336343 0.211662 0.259877
17498 2 0.361111 0.156549 0.258966
20121 2 0.257913 0.150628 0.258787
17569 2 0.360313 0.206177 0.256902
20122 2 0.259404 0.221071 0.255765
20196 4 0.261382 0.246441 0.254745
20113 6 0.28952 0.141149 0.307345
20080 7 0.278238 0.204144 0.310302
17839 9 0.331321 0.171219 0.309132
17529 7 0.360966 0.226672 0.305347
17561 6 0.371858 0.214621 0.305729
17530 7 0.361784 0.201111 0.305631
17840 9 0.316107 0.23504 0.303048
22102 7 0.248755 0.181905 0.31338
17574 5 0.378013 0.214808 0.264804
15305 9 0.374705 0.147779 0.31026
17505 5 0.378681 0.152724 0.267375
17514 1 0.379376 0.214846 0.285342
14890 5 0.423565 0.129902 0.296521
14945 2 0.458439 0.143503 0.255472
14886 1 0.413524 0.181437 0.261694
14894 3 0.385958 0.148365 0.303816
14972 5 0.414838 0.186429 0.279873
14896 5 0.454626 0.181035 0.284829
14968 5 0.414224 0.248417 0.284199
14888 8 0.417009 0.150881 0.305815
12342 3 0.488317 0.220958 0.304402
14895 4 0.422817 0.174355 0.296943
14964 2 0.431319 0.238481 0.292631
14967 4 0.4295 0.213096 0.293278
14889 2 0.431947 0.188919 0.288627
17496 1 0.387347 0.153701 0.286022
14969 5 0.453572 0.240908 0.286869
14944 1 0.48685 0.216649 0.284595
14885 1 0.479165 0.152868 0.283316
14953 5 0.479133 0.210949 0.264185
14936 6 0.487103 0.149954 0.303793
14950 5 0.477192 0.150592 0.263369
15015 1 0.408146 0.245641 0.264049
15025 5 0.437571 0.213265 0.261624
14949 5 0.435843 0.151899 0.259451
14946 2 0.459736 0.219041 0.256985
15020 4 0.462633 0.245769 0.257104
14900 7 0.497602 0.151283 0.309688
12753 9 0.480865 0.234156 0.308761
14901 7 0.474056 0.153175 0.307937
14978 7 0.437077 0.225653 0.313578
14966 3 0.429436 0.251853 0.303269
24544 6 0.0849083 0.0174513 0.336013
24654 7 0.083548 0.0905081 0.328397
24655 7 0.100295 0.0780424 0.335457
24614 6 0.0857323 0.0858179 0.335876
24820 9 0.0233607 0.0590647 0.335633
24550 1 0.0872187 0.0889879 0.356601
24571 2 0.0330585 0.0636229 0.351697
24576 3 0.0286943 0.0493681 0.34136
24577 5 0.0558034 0.0561357 0.35561
24639 2 0.0322069 0.113559 0.351588
24643 4 0.0329335 0.0889209 0.349192
24644 5 0.0148834 0.116794 0.360187
24645 5 0.0553483 0.122586 0.353534
24649 5 0.0163694 0.0571509 0.360096
24568 1 0.0811569 0.0273973 0.356146
22022 5 0.116603 0.0548886 0.359502
22097 5 0.116388 0.117897 0.35541
24582 7 0.0968184 0.0226624 0.330546
24581 7 0.0733494 0.00794036 0.331951
24560 5 0.0797738 0.0889103 0.375596
24819 9 0.0259058 0.0158453 0.342048
22665 6 0.119256 0.0244237 0.321842
22634 7 0.121551 0.0385903 0.324397
22633 7 0.125792 0.0153754 0.327403
22268 9 0.141312 0.114948 0.33166
24572 3 0.0245987 -0.000806537 0.341612
22267 9 0.130381 0.0756903 0.338624
22024 3 0.133405 0.107691 0.337213
22020 3 0.127204 0.0598421 0.339546
22032 7 0.20035 0.014311 0.337844
22021 4 0.132023 0.0254843 0.350619
20065 6 0.239981 0.0242229 0.319639
20416 7 0.244543 0.0372073 0.324142
22631 7 0.171487 0.0725717 0.332068
22632 7 0.182449 0.0906896 0.326817
19714 9 0.226797 0.0703628 0.332328
22666 6 0.180628 0.0844699 0.333774
19468 3 0.231654 0.120865 0.3355
19398 3 0.230099 0.0565495 0.335701
19466 2 0.235097 0.110852 0.347079
19469 4 0.234452 0.0861194 0.348516
19393 2 0.235825 0.0610795 0.347764
19470 5 0.216815 0.120805 0.354213
19474 5 0.217321 0.0524962 0.355734
22016 1 0.183354 0.0869566 0.353019
22018 2 0.134848 0.0502852 0.350774
22019 2 0.135546 0.123266 0.347651
22023 5 0.157701 0.0558356 0.353958
22025 5 0.159246 0.119528 0.351339
21925 1 0.186878 0.0246604 0.357564
21991 6 0.191565 0.0274053 0.337604
22031 7 0.203176 0.0377609 0.337348
20415 7 0.23753 0.0110098 0.325671