ITEM: TIMESTEP
792000
ITEM: NUMBER OF ATOMS
25520
ITEM: BOX BOUNDS pp pp pp
-3.9816255749582447e-01 6.0096706147495730e+01
-1.9538920449561989e+00 5.9124177318955510e+01
-1.2663380808674470e+01 1.1193911321468701e+02
ITEM: ATOMS id type xs ys zs
25182 6 0.0828982 0.0222029 0.152903
25252 6 0.101627 0.0931187 0.152308
25214 3 0.0374007 0.0488798 0.156959
25287 5 0.0299507 0.0562334 0.176055
25283 5 0.0710458 0.116696 0.171559
25282 5 0.029443 0.116936 0.177207
25281 4 0.0418841 0.089343 0.165026
25277 2 0.0459929 0.114293 0.168229
25215 5 0.0686047 0.058359 0.169404
25209 2 0.0442824 0.0637892 0.166785
25188 1 0.100533 0.0877515 0.171797
25458 9 0.0492227 0.0383889 0.155715
25206 1 0.0940929 0.0277849 0.172406
25292 7 0.116448 0.0979861 0.150408
2433 1 0.00220433 0.0222269 0.175975
25293 7 0.0927098 0.104197 0.149168
25219 7 0.0775579 0.00843523 0.157257
22660 5 0.13071 0.0559144 0.173553
22735 5 0.131925 0.118265 0.174661
22905 9 0.146551 0.0411154 0.150596
22662 3 0.149842 0.115315 0.154633
22658 3 0.14785 0.0549236 0.15469
22656 2 0.150526 0.0492614 0.166808
20112 5 0.231564 0.0575659 0.176101
22663 5 0.170616 0.123726 0.170828
22654 1 0.194176 0.0883407 0.173349
22661 5 0.173906 0.0559673 0.170488
22659 4 0.148606 0.0237529 0.166078
22563 1 0.203073 0.0245222 0.175952
22629 6 0.210886 0.0218811 0.155663
22630 6 0.18662 0.0870609 0.153155
22667 7 0.175547 0.0994133 0.152383
22668 7 0.175834 0.0734282 0.154427
20108 5 0.230703 0.12128 0.17441
22518 7 0.216522 0.08163 0.143027
22482 6 0.231341 0.0856445 0.142566
22517 7 0.233185 0.100228 0.144725
20352 9 0.242997 0.0679206 0.151552
20036 3 0.245612 0.0554045 0.156847
22670 7 0.223908 0.0319669 0.15517
20104 2 0.24944 0.114756 0.166864
20107 4 0.248604 0.0898575 0.168932
20031 2 0.248888 0.0646608 0.168182
22669 7 0.216683 0.00655084 0.154865
22657 2 0.148378 0.127405 0.165911
20118 7 0.294606 0.0892065 0.149135
20117 7 0.318172 0.0916349 0.15272
20077 6 0.304081 0.0837728 0.154638
17480 3 0.348483 0.0515675 0.1576
17799 9 0.338285 0.0647252 0.156372
17478 2 0.348605 0.0463363 0.16969
20109 5 0.27127 0.123749 0.171503
17482 5 0.328942 0.0556012 0.175397
20037 5 0.271206 0.0559341 0.171441
20011 1 0.300386 0.0880552 0.175357
20028 1 0.294087 0.0251158 0.174144
17481 4 0.343248 0.0217533 0.170254
17484 3 0.338293 0.111107 0.160577
20003 6 0.304178 0.0207211 0.155084
17560 5 0.330314 0.119196 0.178887
17483 5 0.371919 0.0558988 0.173946
17485 5 0.372472 0.11741 0.173057
20042 7 0.316942 0.0296345 0.156143
20041 7 0.302508 0.0230638 0.147583
17800 9 0.344474 0.116819 0.153985
17479 2 0.348309 0.12406 0.170304
14862 7 0.49591 0.0152922 0.152786
17490 7 0.423032 0.0972196 0.154279
17489 7 0.417419 0.0742635 0.15809
14848 1 0.494957 0.0225746 0.176913
17451 6 0.410154 0.0883793 0.155409
14856 3 0.444218 0.0454243 0.159391
15246 9 0.456473 0.0465081 0.154486
14929 4 0.44496 0.0839674 0.167486
14926 2 0.449144 0.10862 0.17047
14851 2 0.447822 0.0591672 0.169706
14931 5 0.472842 0.110811 0.174262
14857 5 0.46996 0.054444 0.174649
17476 1 0.396028 0.085152 0.175031
14934 5 0.431215 0.0548309 0.178739
14930 5 0.43138 0.117283 0.17812
17384 1 0.399863 0.0214436 0.176915
17450 6 0.405457 0.0189692 0.157152
17492 7 0.419849 0.025492 0.154835
17491 7 0.396748 0.0194862 0.150447
14928 3 0.449799 0.120097 0.158858
14826 6 0.496935 0.0283861 0.156974
15245 9 0.435087 -0.00254967 0.158696
14861 7 0.49696 0.0386936 0.150839
15030 7 0.422336 0.232137 0.252777
25280 5 0.0406644 0.131072 0.15969
25291 7 0.0839341 0.172905 0.155995
25290 7 0.109906 0.171378 0.157112
2033 7 0.041459 0.142108 0.1344
25253 6 0.0960929 0.162664 0.154535
2032 7 0.044937 0.169612 0.134913
1995 6 0.0346014 0.156962 0.138305
25275 1 0.0948766 0.150147 0.173915
25278 8 0.0283358 0.153954 0.153243
22957 9 0.0854671 0.22569 0.154202
22732 3 0.0982039 0.217157 0.158441
25285 4 0.0393193 0.174266 0.161571
25359 5 0.0308647 0.183639 0.180537
25356 5 0.0702827 0.24531 0.174881
25354 4 0.0495323 0.212121 0.170227
25351 2 0.046898 0.237146 0.171463
25286 5 0.0695454 0.177791 0.174553
25279 2 0.0474931 0.187031 0.171418
25259 1 0.099685 0.212717 0.177379
25355 5 0.0305242 0.244062 0.180098
25394 6 0.0632611 0.194608 0.137794
25432 7 0.0575881 0.19263 0.144665
25433 7 0.0768874 0.201395 0.138871
2103 7 0.010312 0.233302 0.157505
9776 7 0.475393 0.242412 0.220625
25353 3 0.0421526 0.247753 0.160046
22906 9 0.147974 0.126162 0.148888
20106 3 0.246688 0.122286 0.155167
22726 8 0.127388 0.216957 0.15241
22730 5 0.126877 0.182976 0.176556
1962 7 0.1354 0.239385 0.135396
1927 6 0.133736 0.221897 0.137456
1963 7 0.148816 0.215045 0.134752
22740 7 0.213607 0.141947 0.149989
22741 7 0.197474 0.159397 0.148596
22700 6 0.200873 0.148206 0.153615
22636 1 0.200121 0.151266 0.173612
22729 4 0.141982 0.151541 0.164848
22733 4 0.139305 0.236044 0.161625
20189 7 0.171717 0.233938 0.156835
20148 6 0.185329 0.225326 0.154067
22728 5 0.137926 0.19486 0.160062
22725 2 0.144357 0.176433 0.16819
20178 5 0.229957 0.243556 0.175406
20183 5 0.229011 0.184452 0.175551
22723 1 0.191744 0.212864 0.172526
22731 5 0.168046 0.180627 0.171817
22807 5 0.129796 0.245096 0.180268
20188 7 0.195798 0.237273 0.153685
20110 3 0.242747 0.175851 0.156451
22734 5 0.169579 0.244024 0.173549
20105 2 0.24748 0.189122 0.166907
20353 9 0.251803 0.137335 0.153918
20173 2 0.247534 0.239081 0.167117
20177 4 0.246952 0.214181 0.164592
20354 9 0.246732 0.183153 0.150338
17555 4 0.34723 0.14823 0.167491
20102 1 0.297285 0.151448 0.173065
17554 3 0.341987 0.182437 0.156174
17801 9 0.34139 0.197856 0.155662
17558 3 0.34258 0.236393 0.15516
17552 2 0.349209 0.17465 0.167524
17556 5 0.328904 0.181915 0.174341
20111 5 0.271967 0.182515 0.169685
20084 1 0.302549 0.21158 0.173215
20179 5 0.271892 0.242208 0.170731
17631 5 0.333061 0.242809 0.175239
17559 5 0.371631 0.246286 0.169063
17557 5 0.372031 0.181767 0.171971
17802 9 0.342251 0.246662 0.149272
12371 7 0.495536 0.120251 0.217838
14939 7 0.479253 0.136372 0.154491
15247 9 0.439933 0.131732 0.158878
17565 7 0.409107 0.156469 0.149236
17566 7 0.402454 0.13354 0.152302
17564 7 0.395534 0.224083 0.147747
17563 7 0.419158 0.215688 0.14945
14938 7 0.454668 0.193887 0.149878
14937 7 0.475654 0.203473 0.144316
17525 6 0.40827 0.146886 0.155314
17459 1 0.401435 0.149946 0.175965
17526 6 0.404404 0.218195 0.153526
14899 6 0.459701 0.203308 0.143706
15248 9 0.432916 0.165079 0.15864
15002 3 0.450558 0.239338 0.155331
14932 3 0.447775 0.170255 0.159288
15000 2 0.450911 0.232002 0.167277
15003 4 0.45038 0.206939 0.167375
14927 2 0.451523 0.182026 0.170139
15005 5 0.473061 0.241832 0.170922
14933 5 0.473028 0.174275 0.174879
15004 5 0.432729 0.237935 0.175334
17550 1 0.396862 0.210454 0.172831
15008 5 0.431734 0.177675 0.177135
15249 9 0.450962 0.225174 0.150716
14940 7 0.491408 0.155747 0.151967
14898 6 0.493643 0.142944 0.156185
20008 7 0.186175 0.00356229 0.246613
25471 9 0.0568637 0.0136653 0.245207
25198 5 0.0961128 0.0834499 0.194406
25195 5 0.0955661 0.0273647 0.192948
25268 5 0.0553504 0.0821643 0.195682
25258 1 0.0250784 0.116584 0.196494
25207 1 0.0290884 0.0547998 0.195823
25191 2 0.0762156 0.0916243 0.200519
25263 4 0.0776935 0.117492 0.201162
25197 4 0.0784678 0.0824827 0.21191
25192 5 0.0707345 0.0358559 0.210117
25196 3 0.0327609 0.064207 0.214083
25190 8 0.0620637 0.0595822 0.217514
25510 9 0.0224384 0.0769022 0.217493
25517 7 0.063091 0.0381392 0.235743
25240 6 0.0674812 0.0541839 0.232958
22685 7 0.0816452 0.105232 0.220542
25506 7 0.0591821 0.0648956 0.238492
25194 5 0.0554782 0.0195919 0.194947
25189 2 0.0777268 0.0190878 0.20109
25308 6 0.0255489 0.112992 0.216927
25272 7 0.0307242 0.117255 0.224391
25201 6 0.0217939 0.0580297 0.24423
22650 7 0.107668 0.0715136 0.21263
25309 7 0.0304514 0.119064 0.241783
25271 7 0.0113963 0.105593 0.218169
22649 6 0.0857101 0.114037 0.226978
22684 7 0.0718686 0.113829 0.231082
25472 9 0.0591157 0.0996587 0.246038
22958 9 0.117868 0.115545 0.217527
22576 7 0.106654 0.0371107 0.23788
22612 6 0.112215 0.0228472 0.235207
14924 1 0.499468 0.145374 0.176333
25205 7 0.00621951 0.000958556 0.218187
22577 7 0.0991741 0.0154329 0.233301
25236 7 0.0299999 0.0691008 0.248392
22760 7 0.100936 0.117955 0.241738
22683 6 0.120528 0.0617528 0.213853
25270 6 0.0442273 0.1235 0.237478
25237 7 0.0301755 0.0443875 0.246165
22635 1 0.122928 0.0581456 0.193725
22651 7 0.125946 0.0644709 0.221586
22686 7 0.0904853 0.0702235 0.246213
22652 7 0.12317 0.0135085 0.221527
22648 6 0.105826 0.0651761 0.248921
25382 7 0.00275052 0.240582 0.239057
25203 7 0.0683646 0.014504 0.222611
17470 6 0.274047 0.00102753 0.231083
25235 6 0.0643111 0.00415242 0.22844
22655 1 0.127504 0.117323 0.194241
20062 7 0.126315 0.0628125 0.238528
22644 3 0.130704 0.120303 0.212956
22931 9 0.189484 0.0147359 0.217432
22643 5 0.191953 0.087739 0.192606
20023 6 0.135634 0.0725814 0.233543
20061 7 0.149917 0.0672511 0.234118
22572 5 0.194743 0.0225753 0.196845
20083 1 0.22251 0.11792 0.193735
20029 1 0.226826 0.0577743 0.196199
22642 5 0.152425 0.0807249 0.194719
20063 7 0.173024 0.0515947 0.225144
22637 2 0.174348 0.0808684 0.200451
22641 4 0.177988 0.0570047 0.203629
22565 2 0.176799 0.031559 0.20451
22640 5 0.170316 0.0971937 0.209859
20060 6 0.23141 0.051856 0.216654
20022 6 0.176627 0.0658355 0.22792
20064 7 0.176109 0.073618 0.220939
22647 5 0.152942 0.0234093 0.20066
22571 3 0.178896 0.0257571 0.216799
22638 8 0.160479 0.119444 0.216987
20025 7 0.241443 0.0399588 0.2139
20024 7 0.242005 0.0648351 0.217077
17471 6 0.221143 0.0254053 0.236742
22954 7 0.173745 0.106981 0.236443
17510 7 0.222754 0.0355033 0.230878
22919 9 0.14815 0.0883604 0.247883
20131 6 0.219536 0.109717 0.21444
22688 6 0.174179 0.120384 0.231748
17509 7 0.234974 0.0272248 0.23998
20098 7 0.226151 0.102755 0.221233
20130 6 0.238375 0.0904724 0.232043
20101 7 0.227166 0.0939691 0.237617
20100 7 0.234362 0.0758226 0.231343
22653 7 0.143773 0.0148899 0.212749
20135 7 0.186892 0.0618744 0.243462
20099 7 0.2034 0.107359 0.21594
22682 6 0.130285 0.00518921 0.215963
20134 7 0.205379 0.0441273 0.244625
20096 6 0.197613 0.0565307 0.248123
25269 6 -0.000266513 0.117608 0.245319
20351 9 0.25158 0.00336528 0.15844
25220 7 0.085397 0.0172717 0.145526
20366 9 0.255697 0.0819162 0.245121
20016 5 0.249857 0.0271945 0.199685
17548 7 0.254979 0.117514 0.232115
20095 5 0.253926 0.08926 0.197098
17456 7 0.310397 0.0597557 0.242323
20020 5 0.292775 0.0869087 0.194159
20017 5 0.290607 0.0265818 0.194601
17477 1 0.326597 0.11833 0.198339
17458 1 0.321487 0.0558298 0.196082
17464 5 0.352318 0.0882701 0.198445
20013 2 0.275953 0.0926214 0.202791
20379 9 0.278422 0.0854366 0.219442
20089 4 0.278249 0.117208 0.204951
20019 3 0.282157 0.0784885 0.212878
20378 9 0.280166 0.0473101 0.212407
17466 6 0.322607 0.0471629 0.216231
17493 7 0.313299 0.034432 0.217765
17494 7 0.334118 0.0386177 0.212547
14960 7 0.331045 0.0926359 0.227649
14918 6 0.32294 0.0838552 0.23238
14959 7 0.318861 0.0714514 0.227804
17469 5 0.350659 0.0215088 0.19993
20014 3 0.27857 0.0321904 0.213491
20012 2 0.272753 0.0195141 0.20298
17503 6 0.303251 0.054156 0.24875
17582 7 0.311974 0.111282 0.240514
17457 7 0.2878 0.0558529 0.247801
17499 3 0.356303 0.0818581 0.246945
14846 7 0.368564 0.0693326 0.23569
17813 9 0.342746 0.0846294 0.243697
17512 7 0.27809 0.0129603 0.225815
17544 6 0.303027 0.120816 0.245337
17583 7 0.289334 0.122855 0.241071
14847 7 0.370808 0.0700013 0.223387
17826 9 0.372766 0.106949 0.212298
14878 6 0.374563 0.0616924 0.229223
17460 2 0.374028 0.0796375 0.201748
17511 7 0.270246 0.0111288 0.236826
17463 4 0.370322 0.0556925 0.20472
17386 2 0.372471 0.0301819 0.20402
17391 3 0.372684 0.0227818 0.216219
17507 6 0.31733 -0.000113583 0.216849
17825 9 0.367479 0.0352405 0.220784
14880 7 0.411826 0.015466 0.247712
17462 3 0.383866 0.0959106 0.210788
15272 9 0.478496 0.0106061 0.221734
14874 3 0.412504 0.0494843 0.248453
14840 5 0.493083 0.0833892 0.197443
17465 5 0.390894 0.082726 0.192589
14906 1 0.423671 0.116796 0.19732
17392 5 0.393192 0.0246648 0.197253
14849 1 0.42768 0.0548972 0.198039
14917 5 0.452369 0.0845276 0.202063
14837 5 0.452258 0.0248592 0.201373
14911 4 0.474792 0.116073 0.203625
14834 2 0.475478 0.0910539 0.205372
14839 3 0.482941 0.0862102 0.216909
14955 6 0.4141 0.0553774 0.216712
15273 9 0.4781 0.0979687 0.222073
14922 7 0.420471 0.0544555 0.223643
14923 7 0.399196 0.0494345 0.217979
15308 7 0.457185 0.07626 0.22867
14884 6 0.449691 0.0609502 0.229975
15297 7 0.457814 0.0488066 0.225219
15303 9 0.39958 0.0502934 0.242745
14868 8 0.441891 0.0527823 0.244436
14835 3 0.481482 0.0240787 0.217555
14833 2 0.476353 0.0187096 0.205397
14838 5 0.495031 0.0273051 0.198128
12366 6 0.470634 0.108876 0.234605
14951 6 0.397739 0.118669 0.243982
14914 6 0.416675 0.117139 0.217438
14941 7 0.409597 0.102314 0.2181
12408 7 0.467519 0.100561 0.241092
12407 7 0.468945 0.124877 0.236808
14845 7 0.399703 0.00757337 0.220188
14905 7 0.404131 0.119938 0.236983
20009 7 0.209253 -0.001028 0.241824
22717 6 0.108917 0.124715 0.247778
22759 7 0.110392 0.13922 0.24568
25512 9 0.00592821 0.175615 0.239619
25347 7 0.00869702 0.193678 0.222439
25310 7 0.0519838 0.133469 0.24206
22960 9 0.0987747 0.22976 0.241151
25348 7 0.00770525 0.169541 0.218724
22830 7 0.0676057 0.248098 0.226297
22718 6 0.103737 0.173955 0.248512
25345 7 0.00409645 0.234669 0.222671
25484 9 0.0822708 0.134598 0.219516
25267 5 0.091935 0.211004 0.1976
25265 5 0.0946721 0.15339 0.19685
25303 3 0.0145419 0.179687 0.246808
25260 2 0.0772618 0.141803 0.203038
25264 5 0.0536914 0.149086 0.200059
25332 1 0.0233562 0.242163 0.200527
25276 1 0.0297344 0.180846 0.198492
25342 5 0.0536411 0.210475 0.203224
25337 4 0.0745532 0.242943 0.206669
25261 2 0.076495 0.2182 0.206525
25266 3 0.0840321 0.21098 0.217872
25262 3 0.0801192 0.148518 0.21512
25485 9 0.0913169 0.195545 0.217467
22720 7 0.108132 0.166379 0.217758
25377 6 0.0185162 0.182486 0.218952
25507 7 0.0656251 0.198879 0.229806
25518 7 0.0608091 0.172122 0.226475
25314 6 0.0654102 0.182036 0.233086
25297 8 0.0461508 0.179974 0.245679
22751 3 0.110914 0.236042 0.24616
22758 7 0.118245 0.175722 0.244551
22757 7 0.0923893 0.173008 0.243281
22756 6 0.118594 0.17794 0.217854
25378 6 0.0131746 0.2473 0.220058
22825 6 0.116528 0.245423 0.217606
22706 1 0.120947 0.179462 0.197246
22796 7 0.101011 0.239748 0.21785
22719 7 0.122485 0.181857 0.225314
22791 6 0.0590199 0.245303 0.232745
22829 7 0.0437429 0.247598 0.230378
20132 7 0.196016 0.122329 0.245271
20169 7 0.221216 0.18746 0.245897
22965 7 0.168295 0.132315 0.237072
20207 7 0.211319 0.240027 0.241483
22724 1 0.127843 0.242969 0.197984
22646 5 0.193263 0.150206 0.192278
22713 5 0.192386 0.211324 0.193429
20103 1 0.226495 0.180391 0.194293
22716 5 0.152495 0.147635 0.194991
20154 1 0.22316 0.241889 0.19522
22722 7 0.148207 0.169171 0.240852
22645 4 0.173477 0.14176 0.209937
22712 5 0.150981 0.21406 0.198318
22639 2 0.174618 0.15485 0.199687
22708 2 0.173646 0.204939 0.200909
22711 4 0.17087 0.179549 0.20101
22710 3 0.18116 0.211324 0.212726
22932 9 0.183102 0.198477 0.216748
20204 6 0.217908 0.238701 0.214822
20092 3 0.231172 0.180264 0.214392
22721 7 0.146568 0.193144 0.243102
20406 9 0.21843 0.173301 0.219113
22745 8 0.140068 0.241604 0.243451
20166 6 0.183826 0.173599 0.225154
20206 7 0.17429 0.180064 0.230525
22755 6 0.143314 0.18321 0.237167
20205 7 0.175867 0.162618 0.220547
22762 6 0.158355 0.239545 0.230982
20203 6 0.207349 0.180216 0.247231
22966 7 0.165667 0.223213 0.229617
20170 7 0.203788 0.175811 0.240191
20168 7 0.20553 0.228108 0.216682
20167 7 0.220875 0.246344 0.222209
20165 6 0.206915 0.248302 0.247331
2104 7 0.00646257 0.210453 0.153868
14843 6 0.40109 0.00304489 0.248368
20127 3 0.253916 0.204241 0.249287
17508 6 0.327668 0.126077 0.217899
17473 7 0.316024 0.12936 0.223298
17578 6 0.265862 0.129346 0.231149
20090 5 0.253093 0.144505 0.194256
17584 6 0.377477 0.241718 0.230846
17472 7 0.339194 0.134709 0.22118
17549 7 0.266457 0.130628 0.223807
20164 5 0.253435 0.210585 0.196633
17571 3 0.357263 0.217352 0.249498
20367 9 0.260179 0.147205 0.243982
17651 6 0.288333 0.231616 0.22739
17617 7 0.282021 0.217799 0.224354
20091 5 0.295334 0.14956 0.195166
20094 5 0.295281 0.20854 0.19363
17531 1 0.322522 0.177127 0.195241
17551 1 0.328822 0.243198 0.194608
17538 5 0.351697 0.205715 0.195705
17543 5 0.354896 0.14691 0.1996
20085 2 0.274265 0.142588 0.200583
20086 8 0.260995 0.180447 0.217761
20087 2 0.276464 0.215614 0.200759
20159 4 0.278177 0.240903 0.202941
20088 5 0.269011 0.159363 0.208961
20093 4 0.276075 0.203042 0.211011
17547 7 0.330731 0.202938 0.217272
17540 3 0.331386 0.241969 0.214821
17579 6 0.324959 0.187651 0.21636
17546 7 0.311628 0.187481 0.221217
20136 6 0.279009 0.183502 0.230418
20413 7 0.27737 0.197483 0.235205
20402 7 0.276852 0.171649 0.23672
17534 8 0.361788 0.239861 0.217692
14996 7 0.362082 0.19583 0.235009
17814 9 0.370465 0.159468 0.246489
15026 6 0.368621 0.185521 0.230348
14997 7 0.368253 0.192178 0.223245
17545 6 0.318526 0.243442 0.245927
17815 9 0.346518 0.228268 0.248415
17536 5 0.371129 0.217117 0.209831
17854 9 0.317883 0.237407 0.218967
17850 7 0.374019 0.227755 0.236356
17618 7 0.284327 0.242449 0.221897
12329 7 0.434043 0.140799 0.227689
14915 3 0.478544 0.203501 0.214219
12352 7 0.486835 0.171495 0.246271
17467 3 0.37915 0.146986 0.21704
17827 9 0.378293 0.160643 0.221278
9777 7 0.476563 0.224994 0.229723
14995 7 0.407834 0.238392 0.220361
14904 7 0.383574 0.127094 0.243453
14942 7 0.403792 0.127652 0.217949
17533 2 0.374478 0.20248 0.200796
17539 5 0.395074 0.204093 0.193709
15261 9 0.450812 0.15504 0.244671
14952 3 0.463474 0.21433 0.247754
14957 7 0.414038 0.165989 0.240316
14916 5 0.4953 0.208326 0.194191
12328 7 0.455817 0.155512 0.226909
12399 6 0.498094 0.183732 0.24532
14979 1 0.423843 0.239939 0.194216
15274 9 0.485233 0.16468 0.215559
17461 2 0.376323 0.152631 0.205311
14909 2 0.477116 0.214373 0.202669
9739 6 0.477574 0.241405 0.228442
14956 6 0.431441 0.190879 0.218087
14913 5 0.493429 0.147336 0.196587
17468 5 0.396632 0.145078 0.198177
12291 6 0.441183 0.153271 0.230975
17537 4 0.375215 0.178446 0.203927
14919 6 0.404614 0.178511 0.243375
14908 2 0.474576 0.140861 0.204186
14921 7 0.446255 0.195292 0.217116
14994 7 0.424704 0.222676 0.216022
15262 9 0.4681 0.227717 0.244246
14985 4 0.481059 0.239525 0.204665
12353 7 0.487903 0.196574 0.244492
14992 6 0.411234 0.239938 0.248222
14912 5 0.452197 0.149593 0.200355
15031 7 0.407929 0.23076 0.242067
15027 6 0.419315 0.237846 0.214511
14958 7 0.391839 0.180502 0.238317
14991 5 0.454064 0.209502 0.199144
15275 9 0.491999 0.208401 0.217528
14920 7 0.43193 0.181769 0.224443
14925 1 0.427949 0.180475 0.19846
14947 3 0.463369 0.151319 0.249308
14910 3 0.477235 0.150775 0.215347
22727 2 0.145733 0.249959 0.17129
17581 7 0.313623 0.24106 0.23879
14881 7 0.386365 0.0107778 0.247853
20133 7 0.190868 0.0984411 0.248505
25178 3 0.0229815 0.0523447 0.30411
25245 3 0.0207619 0.11136 0.306487
25251 5 0.0103958 0.0546418 0.284872
25246 4 0.033059 0.0861287 0.292608
25243 2 0.0278498 0.110855 0.294457
25224 1 0.0824874 0.087953 0.290315
25179 5 0.0517484 0.0517493 0.290236
25173 2 0.0289861 0.061097 0.292955
25170 1 0.076995 0.0245499 0.290854
25232 5 0.0735136 0.0850299 0.26972
25230 5 0.0745191 0.0271758 0.269085
22671 1 0.103051 0.055451 0.270254
25171 1 0.00652549 0.0532238 0.264322
25229 5 0.0331426 0.022538 0.264502
25306 5 0.0313843 0.0855892 0.265109
25226 2 0.054804 0.0941171 0.262274
25225 2 0.0569441 0.0167498 0.26203
22619 1 0.106503 0.118242 0.268084
25300 4 0.0519864 0.119785 0.261014
25248 5 0.049358 0.122504 0.291555
22699 5 0.110056 0.11766 0.289252
22624 5 0.11317 0.0565203 0.289325
25247 5 0.00829965 0.117018 0.286996
25496 9 0.0268558 0.0363168 0.304619
25184 7 0.0575695 0.0144099 0.310207
25218 6 0.0714829 0.0231925 0.311583
22626 3 0.122088 0.122739 0.309203
22622 3 0.126273 0.0624713 0.308698
25288 6 0.0871638 0.0892765 0.30959
25497 9 0.0204871 0.096487 0.309468
25294 1 0.00105268 0.115925 0.26689
25257 7 0.0939373 0.104708 0.309328
22623 4 0.128771 0.025146 0.298677
25174 3 0.0267475 0.00384876 0.306367
25256 7 0.101014 0.0821762 0.311105
25231 3 0.0585123 0.0864768 0.25074
22620 2 0.130906 0.0509461 0.297523
22681 5 0.133611 0.0248442 0.266854
19999 4 0.221509 0.0475722 0.303993
19993 2 0.226806 0.0639574 0.295012
20068 2 0.228471 0.113624 0.298301
20071 4 0.225069 0.088147 0.298668
22625 5 0.154052 0.0580042 0.294667
22627 5 0.151783 0.117264 0.293863
22618 1 0.176292 0.0880529 0.292011
20076 5 0.210074 0.0609755 0.285925
22600 1 0.185119 0.0251401 0.292652
22609 5 0.174058 0.024892 0.274101
22678 5 0.172285 0.0923403 0.271723
19990 1 0.208786 0.0576629 0.268348
22677 5 0.131638 0.0887635 0.26606
20129 5 0.23417 0.0871245 0.265156
20053 5 0.230181 0.0253918 0.263676
22602 2 0.15736 0.031934 0.265792
22673 2 0.155547 0.0826594 0.263769
22676 4 0.158052 0.0575582 0.264708
20119 1 0.205185 0.118632 0.270138
20072 5 0.21198 0.123861 0.29034
22608 3 0.166678 0.0221641 0.255131
22675 3 0.160318 0.0922999 0.25249
20070 3 0.231115 0.124718 0.309468
19994 5 0.225156 0.00391257 0.302143
22918 9 0.171993 0.0335104 0.250785
22920 9 0.160402 0.129561 0.25261
19992 8 0.217712 0.0236431 0.312119
20000 5 0.251034 0.0568674 0.291609
20073 5 0.251976 0.118036 0.293821
20049 2 0.254378 0.0181328 0.261309
20124 4 0.259644 0.116742 0.258579
17440 8 0.321332 0.0903268 0.311391
17446 3 0.290461 0.0919684 0.309593
17442 5 0.326695 0.0665974 0.303568
17447 4 0.326997 0.11117 0.302024
17443 4 0.328547 0.0260451 0.297403
17439 2 0.330203 0.0514552 0.294331
20048 1 0.283202 0.0881232 0.290581
19989 1 0.276865 0.0266922 0.288457
17445 5 0.353181 0.0567874 0.290635
17444 5 0.310629 0.0564672 0.286923
20057 5 0.274958 0.085439 0.2696
17495 1 0.303917 0.057248 0.268242
17506 5 0.333983 0.0233501 0.26886
20054 5 0.271504 0.0277422 0.269223
17438 1 0.308272 0.119355 0.266426
17501 5 0.332356 0.0892769 0.263316
17421 2 0.356002 0.0310365 0.264423
20050 2 0.257896 0.0917734 0.261191
17497 2 0.354957 0.0802926 0.259551
17500 4 0.35783 0.0561033 0.262006
17428 5 0.375071 0.0246722 0.271651
17448 5 0.354323 0.117069 0.289168
17502 5 0.374754 0.0904028 0.264843
17524 5 0.313029 0.12264 0.284673
17427 4 0.355714 0.0161103 0.25417
20056 3 0.261405 0.0745933 0.251718
20040 6 0.284643 0.0237803 0.308661
20365 9 0.264713 0.0435859 0.251112
19771 9 0.209141 0.00457868 0.489357
17369 2 0.329653 0.000763851 0.296184
20005 7 0.299316 0.0165021 0.30943
17437 1 0.376939 0.0863284 0.287063
17418 1 0.383348 0.0247008 0.290318
14822 3 0.419453 0.0504927 0.306583
14891 4 0.429647 0.0871895 0.296667
14817 2 0.427982 0.0613495 0.29589
14887 2 0.429446 0.111386 0.292621
14823 5 0.45096 0.0532836 0.292106
14893 5 0.453089 0.11799 0.289555
14897 5 0.41244 0.0587121 0.28619
14892 5 0.411403 0.115921 0.284219
14866 1 0.480293 0.0858138 0.2876
14814 1 0.475335 0.021705 0.289514
14873 5 0.475361 0.0233427 0.268349
14876 5 0.474128 0.0859761 0.269396
14815 1 0.410627 0.0536155 0.267416
14943 1 0.400893 0.116984 0.264896
14954 5 0.433675 0.0832948 0.265178
17412 6 0.388307 0.0188024 0.310706
14869 2 0.456702 0.0900904 0.261184
14872 5 0.433983 0.0206169 0.268037
14867 2 0.455434 0.0167608 0.261843
14948 4 0.457196 0.114374 0.257533
14860 6 0.48609 0.0828796 0.309195
14870 5 0.451284 0.0307031 0.25207
17380 7 0.399016 0.00734917 0.312092
17379 7 0.398421 0.0319945 0.311045
14875 4 0.455252 0.0733983 0.252119
15286 9 0.427957 0.0560481 0.312616
24597 6 0.0676154 0.00255624 0.409231
14902 7 0.43536 0.0840689 0.313582
14828 7 0.498492 0.0933465 0.308352
25366 1 0.00211712 0.243133 0.267338
25296 2 0.0536916 0.144459 0.263859
25241 1 0.0739965 0.149818 0.292859
25249 3 0.0146653 0.176016 0.306653
25360 6 0.0872706 0.209177 0.308603
25320 4 0.0216715 0.212894 0.297425
25317 2 0.026554 0.237286 0.296081
25295 1 0.0778707 0.211022 0.289056
25250 5 0.0484373 0.182287 0.293624
25244 2 0.0249391 0.187436 0.296137
25325 5 0.00872962 0.179778 0.28731
25302 5 0.074086 0.152198 0.270093
25305 5 0.0700391 0.210385 0.272037
22742 1 0.100317 0.175933 0.269195
25301 5 0.0314866 0.151785 0.268652
25242 1 0.00530618 0.178908 0.266165
25376 5 0.029098 0.217464 0.267807
25298 2 0.0531534 0.217746 0.263555
25371 4 0.0570327 0.242682 0.260389
22690 1 0.106052 0.238322 0.266201
22695 5 0.106935 0.182096 0.290171
22773 5 0.109108 0.243373 0.284574
25331 7 0.100366 0.220145 0.308492
22697 3 0.118831 0.244413 0.303682
25299 5 0.0537694 0.155227 0.253048
25304 4 0.0511083 0.201666 0.254632
25289 6 0.0798785 0.145632 0.312748
25499 9 0.0242258 0.239068 0.313201
25255 7 0.0926064 0.137717 0.314348
25321 5 0.00863728 0.247759 0.288672
25322 5 0.0498894 0.240708 0.292426
22945 9 0.116853 0.163091 0.31308
22693 3 0.121066 0.176906 0.309656
25330 7 0.0933027 0.19597 0.312421
25319 3 0.0239533 0.249008 0.307079
22694 4 0.128616 0.150478 0.29518
22621 2 0.128094 0.125402 0.296932
22691 2 0.126622 0.174666 0.297287
22748 4 0.155727 0.181709 0.260359
22674 2 0.156432 0.15591 0.262966
22754 5 0.132867 0.150891 0.266739
20202 5 0.230849 0.212089 0.26488
22672 1 0.18121 0.150747 0.291084
20142 4 0.225178 0.213451 0.296501
20147 5 0.210374 0.182049 0.286953
22696 5 0.150321 0.183372 0.294394
20074 3 0.222422 0.178089 0.306619
20069 2 0.227121 0.188097 0.295279
22689 1 0.173571 0.211639 0.290193
20139 2 0.226651 0.23814 0.293584
20067 1 0.206792 0.180547 0.267662
22680 5 0.173129 0.150931 0.271658
22750 5 0.173138 0.214338 0.269024
22749 5 0.130257 0.210035 0.267312
20125 5 0.232355 0.143685 0.265164
22744 2 0.152683 0.206135 0.262246
22737 6 0.187686 0.210951 0.309668
22698 5 0.148868 0.241473 0.289837
20190 1 0.199533 0.241078 0.266469
1403 4 -0.00178966 0.148984 0.43616
20143 5 0.208625 0.244033 0.285994
22736 6 0.183918 0.152464 0.313004
20391 9 0.223745 0.13818 0.309745
22747 5 0.148503 0.219524 0.252722
22679 3 0.161656 0.145291 0.251435
22704 7 0.194056 0.165792 0.31368
22703 7 0.202919 0.212466 0.309289
20393 9 0.225806 0.240053 0.310506
20392 9 0.227689 0.188082 0.31255
20144 5 0.249721 0.24268 0.289849
17441 2 0.331402 0.125078 0.292767
20075 5 0.249232 0.180612 0.290872
20121 2 0.255654 0.142085 0.260632
20122 2 0.253681 0.21642 0.260568
17572 4 0.356955 0.181177 0.261522
20126 5 0.273315 0.148964 0.268605
20066 1 0.27546 0.14932 0.289806
17516 2 0.329101 0.174263 0.294944
17518 3 0.32545 0.184317 0.306848
20114 6 0.286324 0.21172 0.309404
17519 4 0.329912 0.149461 0.296525
17521 5 0.351081 0.182586 0.289928
20120 1 0.279395 0.210816 0.288694
17520 5 0.310419 0.184461 0.288175
17595 5 0.310332 0.243438 0.28546
17567 1 0.301337 0.179677 0.267408
20128 5 0.271413 0.208508 0.268258
17577 5 0.33239 0.149454 0.264062
17573 5 0.331225 0.211605 0.264202
17498 2 0.356268 0.155817 0.26172
17569 2 0.354419 0.20613 0.260698
20196 4 0.255589 0.241588 0.258436
20113 6 0.268936 0.152031 0.310348
17523 5 0.350701 0.242429 0.290262
17515 1 0.306667 0.243719 0.265872
17839 9 0.323133 0.199195 0.306069
17522 3 0.322021 0.238773 0.305027
17530 7 0.362061 0.195184 0.310894
20080 7 0.297776 0.22209 0.309835
20082 7 0.257436 0.141218 0.309254
20081 7 0.259482 0.165534 0.310681
20368 9 0.256444 0.188256 0.250513
20123 3 0.25883 0.156724 0.250794
17574 5 0.372005 0.214576 0.26878
17505 5 0.373074 0.150549 0.270094
1861 9 -0.00404512 0.200644 0.426911
17504 3 0.364716 0.146795 0.250775
17561 6 0.376583 0.201486 0.309075
17514 1 0.376305 0.209656 0.288719
14890 5 0.423906 0.128193 0.301149
17496 1 0.38431 0.150973 0.289101
15020 4 0.458122 0.245467 0.260412
14945 2 0.455197 0.140898 0.25958
14886 1 0.407808 0.180309 0.263782
14894 3 0.38464 0.147243 0.308318
14972 5 0.411828 0.183326 0.282322
14896 5 0.452171 0.182149 0.288743
14888 8 0.415259 0.149493 0.309054
12342 3 0.484831 0.21231 0.307288
14895 4 0.419557 0.171603 0.300205
14964 2 0.427917 0.237383 0.295437
14967 4 0.429304 0.212419 0.294192
14889 2 0.428014 0.187658 0.291296
14944 1 0.481681 0.213757 0.287743
14885 1 0.475997 0.149639 0.286294
14953 5 0.473062 0.210991 0.2682
14936 6 0.479263 0.145107 0.30649
14950 5 0.471166 0.147632 0.268236
15025 5 0.433253 0.211774 0.261518
14949 5 0.431328 0.146602 0.262011
14946 2 0.456179 0.220591 0.259555
15015 1 0.402286 0.24306 0.267461
14969 5 0.451533 0.244418 0.291594
14968 5 0.40694 0.24463 0.28936
14966 3 0.4273 0.24294 0.307493
14901 7 0.492078 0.146237 0.311186
12753 9 0.473872 0.212755 0.313655
22545 2 0.130188 -0.000147385 0.294765
25185 7 0.0379813 0.0629207 0.316816
25183 7 0.0663518 0.0348396 0.316852
24544 6 0.0930087 0.0194237 0.334762
24654 7 0.104111 0.0718845 0.331321
24655 7 0.0948565 0.092878 0.327097
24614 6 0.0921081 0.0824367 0.332833
24820 9 0.0359206 0.0572073 0.333675
24550 1 0.0914607 0.08695 0.353755
24571 2 0.0361758 0.0612079 0.350274
24576 3 0.0295006 0.0493542 0.340032
24577 5 0.0597404 0.0557915 0.352986
24639 2 0.0358162 0.111131 0.350751
24643 4 0.0324945 0.0866267 0.347053
24644 5 0.0185991 0.116943 0.358978
24645 5 0.0596718 0.116209 0.353202
24649 5 0.0206074 0.0559465 0.359587
24568 1 0.0842382 0.0255816 0.354146
22022 5 0.117746 0.0584082 0.354245
25186 7 0.0584907 0.07454 0.322104
25217 6 0.0496683 0.0614258 0.322144
24581 7 0.085932 0.0192976 0.327923
22097 5 0.11968 0.116724 0.354023
1825 7 0.00542574 0.0318565 0.335967
22267 9 0.115502 0.0401049 0.334588
24582 7 0.0997228 0.00408878 0.335229
24560 5 0.0868048 0.0896779 0.37487
22943 9 0.124138 0.0506389 0.313608
22017 1 0.118936 0.119356 0.375502
19998 3 0.188011 0.0221626 0.311522
22634 7 0.158129 0.0761094 0.310471
22944 9 0.134542 0.118228 0.313234
22665 6 0.170307 0.0849054 0.312369
21945 2 0.138438 2.22307e-05 0.350596
22266 9 0.129746 0.0113527 0.334929
20409 9 0.177453 0.0292719 0.317751
22633 7 0.167908 0.0861999 0.319954
22024 3 0.132317 0.116433 0.334992
22020 3 0.128965 0.047764 0.335082
22032 7 0.174027 0.0457249 0.339813
22021 4 0.137926 0.0244787 0.350949
20065 6 0.241822 0.0207348 0.322694
22631 7 0.198632 0.0822646 0.325128
22632 7 0.210748 0.0974058 0.33214
19714 9 0.23085 0.0690876 0.334725
22666 6 0.196336 0.0881255 0.331905
19468 3 0.236993 0.114264 0.336259