ITEM: TIMESTEP
748000
ITEM: NUMBER OF ATOMS
25520
ITEM: BOX BOUNDS pp pp pp
-3.8905814040821329e-01 6.0087601730409474e+01
-1.9446998567547902e+00 5.9114985130754285e+01
-1.2644628258253293e+01 1.1192036066426571e+02
ITEM: ATOMS id type xs ys zs
25182 6 0.0885899 0.0235386 0.152634
25252 6 0.104094 0.0823399 0.152019
25214 3 0.0322011 0.0472466 0.155124
25287 5 0.0259599 0.0487832 0.175211
25283 5 0.0655353 0.111201 0.172268
25282 5 0.0245425 0.10958 0.177396
25281 4 0.040088 0.0807253 0.165146
25277 2 0.0421259 0.105341 0.169192
25215 5 0.066707 0.049925 0.167802
25209 2 0.0417643 0.0553881 0.166357
25188 1 0.0976009 0.0832324 0.172184
25458 9 0.035443 0.0581028 0.149768
25206 1 0.0930671 0.0212724 0.172883
25293 7 0.113652 0.069801 0.150797
25292 7 0.0926532 0.0817519 0.146673
25220 7 0.0744259 0.0312377 0.155265
25219 7 0.0840346 0.00868838 0.149659
25280 5 0.036351 0.122847 0.160761
25235 6 0.0788611 0.00288398 0.229309
22660 5 0.129723 0.0533219 0.173966
22735 5 0.125263 0.112272 0.171472
22905 9 0.139356 0.0404869 0.150395
22662 3 0.147544 0.112446 0.153187
22658 3 0.140229 0.0539039 0.154523
22656 2 0.148517 0.0470524 0.166035
20112 5 0.228063 0.0528689 0.175586
22663 5 0.167508 0.114557 0.169014
22654 1 0.192833 0.0859771 0.171607
22661 5 0.170199 0.0567209 0.170037
22659 4 0.151773 0.0211604 0.16572
22563 1 0.199194 0.022265 0.173571
22629 6 0.209095 0.0206164 0.154704
22630 6 0.188755 0.0804848 0.150821
22667 7 0.177457 0.0914211 0.149884
22668 7 0.180947 0.0682805 0.149127
20108 5 0.226217 0.118363 0.174057
20106 3 0.243401 0.117559 0.154998
22669 7 0.220076 0.0316394 0.152926
20031 2 0.246564 0.0613009 0.168794
22518 7 0.217646 0.0831636 0.142628
22482 6 0.233061 0.0806879 0.141764
22517 7 0.238928 0.0935265 0.145962
20352 9 0.239324 0.0624798 0.151889
20104 2 0.24531 0.110841 0.166973
22657 2 0.14502 0.122261 0.165064
20107 4 0.243 0.0853496 0.167549
20036 3 0.242985 0.0514843 0.157275
22906 9 0.13489 0.101677 0.152748
22670 7 0.215645 0.00722243 0.152109
20118 7 0.318047 0.0665747 0.155821
20117 7 0.297588 0.0688043 0.149471
20077 6 0.30516 0.0754776 0.155711
17480 3 0.345677 0.0487173 0.157773
17799 9 0.341167 0.0364642 0.153465
17478 2 0.347924 0.0433481 0.17004
20109 5 0.26804 0.118998 0.170843
17482 5 0.327564 0.0536539 0.175453
20037 5 0.270347 0.0581664 0.172766
20011 1 0.29923 0.0805491 0.176016
20028 1 0.294069 0.019038 0.174235
17481 4 0.346903 0.0188076 0.172146
17484 3 0.340602 0.107317 0.157435
20003 6 0.299849 0.0126677 0.154274
17560 5 0.326661 0.109202 0.175611
17483 5 0.368855 0.0526132 0.175669
17485 5 0.368104 0.115763 0.171019
17800 9 0.32725 0.0989809 0.157976
17479 2 0.343894 0.120514 0.168248
20041 7 0.302087 0.0147372 0.146859
20042 7 0.3107 0.00152777 0.156685
17490 7 0.372517 0.0977038 0.155197
17489 7 0.373393 0.0741186 0.151788
14848 1 0.49381 0.0184275 0.175725
17451 6 0.382897 0.0849852 0.155364
14856 3 0.432963 0.0431835 0.162118
15246 9 0.441802 0.0302087 0.160783
14929 4 0.440638 0.0806587 0.167858
14926 2 0.446308 0.105471 0.168338
14851 2 0.443225 0.056621 0.171849
14931 5 0.469914 0.107167 0.173353
14857 5 0.468251 0.0521313 0.173206
17476 1 0.392707 0.0827833 0.175598
14934 5 0.427862 0.0519104 0.181654
14930 5 0.429317 0.114041 0.17608
17384 1 0.399617 0.017639 0.178493
17450 6 0.401324 0.0109649 0.15817
17492 7 0.410746 0.0237613 0.158058
14928 3 0.444736 0.119555 0.157647
15247 9 0.429917 0.123907 0.156296
17491 7 0.411509 -0.000116183 0.156837
14832 1 0.498678 0.0783772 0.17784
25291 7 0.0891176 0.156522 0.149002
25290 7 0.10646 0.137436 0.149537
2033 7 0.0488892 0.151524 0.135544
25253 6 0.0941172 0.142773 0.153178
2032 7 0.0210103 0.15131 0.133397
1995 6 0.0343814 0.144764 0.138438
25275 1 0.0906482 0.145227 0.172609
25278 8 0.0279199 0.146014 0.153325
22957 9 0.0869613 0.227072 0.155399
22732 3 0.0981809 0.213808 0.154235
25285 4 0.0379032 0.169559 0.160339
25359 5 0.0272093 0.180354 0.178899
25356 5 0.0693436 0.241125 0.17284
25354 4 0.0402485 0.210689 0.167387
25351 2 0.0450339 0.234857 0.169825
25286 5 0.0679546 0.184789 0.171311
25279 2 0.0422315 0.184753 0.169344
25259 1 0.0963771 0.210667 0.174073
25355 5 0.0271897 0.240407 0.178133
25394 6 0.0735385 0.177728 0.146625
25432 7 0.0641589 0.178242 0.153138
25433 7 0.085395 0.188198 0.14812
2103 7 0.00983834 0.226189 0.160836
25353 3 0.0386551 0.24638 0.159225
22726 8 0.128 0.213932 0.15163
20353 9 0.24008 0.132897 0.154228
1962 7 0.151317 0.233685 0.137376
1927 6 0.140771 0.219668 0.137841
22730 5 0.124066 0.175886 0.176402
1963 7 0.150231 0.207397 0.134124
22740 7 0.212746 0.157295 0.15037
22741 7 0.193882 0.148104 0.144477
22700 6 0.200735 0.148658 0.151507
22636 1 0.196922 0.149024 0.172721
22729 4 0.141257 0.147783 0.165058
22733 4 0.136873 0.234161 0.161002
20189 7 0.212606 0.217225 0.155973
20148 6 0.197894 0.224153 0.154911
22728 5 0.134541 0.190537 0.159505
22725 2 0.140335 0.172607 0.167325
20178 5 0.227746 0.239145 0.177346
20183 5 0.229112 0.180621 0.175083
22723 1 0.191443 0.20913 0.173737
22731 5 0.164913 0.17783 0.171005
22807 5 0.128498 0.241404 0.179781
20188 7 0.202458 0.239512 0.155949
20177 4 0.24372 0.211012 0.163537
20110 3 0.237172 0.170747 0.156483
20105 2 0.245647 0.185386 0.165809
20173 2 0.243827 0.235211 0.168033
22734 5 0.168051 0.239015 0.173671
22727 2 0.144638 0.246617 0.170817
20354 9 0.241997 0.177759 0.149733
17555 4 0.338871 0.145541 0.166651
20102 1 0.2926 0.146883 0.17315
17554 3 0.339612 0.181904 0.156271
17801 9 0.341351 0.170558 0.150653
17558 3 0.338784 0.230436 0.156844
17552 2 0.3454 0.170293 0.167424
17556 5 0.3278 0.180129 0.174394
20111 5 0.268791 0.177138 0.169118
20084 1 0.298048 0.208417 0.174529
20179 5 0.267596 0.241124 0.171127
17631 5 0.324378 0.238256 0.174644
17559 5 0.368271 0.235476 0.170132
17557 5 0.369934 0.174384 0.170051
17802 9 0.343316 0.21552 0.157964
17553 2 0.344003 0.244297 0.16756
17565 7 0.395431 0.130509 0.151345
17566 7 0.397677 0.155016 0.148912
17564 7 0.414133 0.185715 0.153396
17563 7 0.393884 0.194748 0.147219
14924 1 0.495712 0.139273 0.176395
14938 7 0.459242 0.192404 0.14501
14937 7 0.480126 0.204272 0.142637
17525 6 0.401372 0.143471 0.154602
17459 1 0.398234 0.144023 0.174762
17526 6 0.402165 0.197584 0.153584
14899 6 0.463801 0.20428 0.14065
15248 9 0.446473 0.151284 0.156282
15002 3 0.44261 0.233789 0.154395
14932 3 0.446101 0.167346 0.156027
15000 2 0.447813 0.227661 0.166234
15003 4 0.450042 0.202931 0.167219
14927 2 0.449374 0.177545 0.167357
15005 5 0.468574 0.236262 0.171369
14933 5 0.472713 0.170574 0.171783
15004 5 0.428564 0.236042 0.173444
17550 1 0.395331 0.205487 0.172728
15008 5 0.432014 0.170901 0.175378
15249 9 0.451429 0.224019 0.149371
14939 7 0.49358 0.136512 0.1514
25237 7 0.0316995 0.0389197 0.243059
25231 3 0.0631864 0.0818794 0.250168
25227 3 0.0598134 0.0216329 0.247708
22687 7 0.0958692 0.0582068 0.243636
25471 9 0.0647706 0.00887066 0.244128
25198 5 0.0938188 0.0832922 0.19386
25195 5 0.0915384 0.0192771 0.192065
25268 5 0.0514188 0.0796238 0.19588
25258 1 0.0208334 0.113672 0.197297
25207 1 0.0270408 0.0523212 0.195381
25191 2 0.0731651 0.0892609 0.199752
25263 4 0.0728054 0.114787 0.201323
25197 4 0.0756376 0.0790341 0.210488
25192 5 0.0727833 0.0329822 0.208878
25196 3 0.03237 0.0564729 0.214399
25190 8 0.0631998 0.0555848 0.217112
25510 9 0.0210017 0.0537479 0.220473
25517 7 0.0754652 0.0377859 0.235835
25240 6 0.0707231 0.0527681 0.232036
22685 7 0.0844993 0.0982842 0.220724
25506 7 0.062288 0.0609915 0.238422
25194 5 0.0514154 0.0109447 0.197906
25189 2 0.0761182 0.0136551 0.201163
25308 6 0.0159166 0.114088 0.217825
25272 7 0.0265864 0.114385 0.223815
22635 1 0.119307 0.054298 0.192971
25201 6 0.0215361 0.0513253 0.241887
22650 7 0.106308 0.067501 0.214646
22683 6 0.121458 0.0611101 0.212631
25270 6 0.0490335 0.11752 0.234742
22760 7 0.0967421 0.119453 0.238935
25309 7 0.0469038 0.110177 0.242297
22717 6 0.103374 0.114461 0.24568
22759 7 0.116679 0.106673 0.243767
25271 7 0.00630163 0.101638 0.219439
22649 6 0.0874387 0.111646 0.225063
22684 7 0.0734303 0.115159 0.229349
25203 7 0.0820779 0.0149796 0.224283
25472 9 0.0767529 0.0887951 0.248094
22648 6 0.105409 0.0505102 0.248225
25236 7 0.0292777 0.0641448 0.245384
25205 7 0.0122433 0.0031182 0.22042
22958 9 0.11181 0.118412 0.215424
25382 7 0.00190841 0.237756 0.234755
22791 6 0.0692778 0.247759 0.229274
17584 6 0.377715 0.239306 0.231289
22686 7 0.107091 0.0368864 0.24367
20062 7 0.128458 0.0762468 0.240827
22651 7 0.131717 0.0726735 0.21249
22655 1 0.124181 0.114877 0.193131
22653 7 0.145416 0.0133544 0.216135
22576 7 0.156641 0.00564159 0.242486
22644 3 0.125995 0.116318 0.211496
22931 9 0.187934 0.00893004 0.212349
20096 6 0.203707 0.0530425 0.24612
22643 5 0.193621 0.0874779 0.193921
20023 6 0.136014 0.0869516 0.236874
20134 7 0.194059 0.0579177 0.239838
20061 7 0.146945 0.0766308 0.234412
22572 5 0.191665 0.0217272 0.193545
20083 1 0.217764 0.114441 0.194539
20029 1 0.224476 0.05286 0.196064
22642 5 0.151436 0.0874267 0.193675
20063 7 0.174094 0.0501786 0.221422
22637 2 0.172079 0.0803966 0.19932
22641 4 0.172805 0.0555066 0.200935
22565 2 0.173675 0.03011 0.200739
22640 5 0.168142 0.0935459 0.209458
20060 6 0.2219 0.0548038 0.216819
20022 6 0.179693 0.0619225 0.225818
20064 7 0.178452 0.0748664 0.221421
22647 5 0.15075 0.0221339 0.197297
22571 3 0.17761 0.0214351 0.212387
22638 8 0.155984 0.115701 0.2159
20025 7 0.233014 0.0565414 0.223553
20024 7 0.206839 0.0540824 0.220346
20130 6 0.247892 0.0643296 0.233481
17471 6 0.232157 0.0128886 0.232449
22954 7 0.163336 0.108295 0.236379
17510 7 0.230778 0.0287428 0.231066
22919 9 0.153035 0.0946191 0.248924
20131 6 0.215253 0.120049 0.214444
20099 7 0.226595 0.123913 0.219503
20135 7 0.219076 0.0513434 0.242658
20098 7 0.201196 0.122553 0.218444
22688 6 0.169881 0.118245 0.229974
20133 7 0.220269 0.122867 0.240144
20097 6 0.213263 0.122362 0.247428
20016 5 0.249843 0.0231776 0.196491
17509 7 0.220012 0.00850595 0.237226
12291 6 0.435473 0.150746 0.229124
20095 5 0.2484 0.0838753 0.19999
17544 6 0.298333 0.123407 0.246151
20365 9 0.253865 0.0165719 0.243453
20100 7 0.259942 0.0695105 0.228727
20101 7 0.253959 0.0506342 0.236103
17456 7 0.286133 0.0668822 0.246246
20020 5 0.28968 0.0795556 0.196247
20017 5 0.289882 0.0202594 0.193292
17477 1 0.324137 0.113929 0.197231
17458 1 0.321011 0.0508168 0.197402
17464 5 0.34876 0.0842714 0.200325
20013 2 0.271518 0.087776 0.203725
20379 9 0.276979 0.0615004 0.213919
20089 4 0.276349 0.113615 0.203995
20019 3 0.274578 0.0764765 0.214986
20378 9 0.284901 0.0235395 0.216875
17466 6 0.327037 0.0495512 0.218366
17493 7 0.34258 0.0436345 0.217594
17494 7 0.329274 0.062504 0.222763
14960 7 0.331893 0.0906703 0.239276
14918 6 0.320433 0.0915784 0.23407
14959 7 0.3107 0.0801186 0.23642
17469 5 0.350985 0.0200914 0.201664
20014 3 0.276159 0.030987 0.211231
20012 2 0.270401 0.0156993 0.201755
17503 6 0.293472 0.0536214 0.246204
17499 3 0.358958 0.0942541 0.248898
17473 7 0.319531 0.109625 0.221877
17460 2 0.372281 0.0774831 0.203809
17548 7 0.258687 0.10714 0.224767
17386 2 0.372855 0.0276194 0.205933
17582 7 0.310925 0.115543 0.242548
14846 7 0.365245 0.0654507 0.239795
17463 4 0.370554 0.0526558 0.206036
17578 6 0.255467 0.121898 0.226661
17826 9 0.383186 0.105406 0.212794
17457 7 0.281902 0.0428955 0.244866
20051 3 0.257363 0.0275511 0.249675
17583 7 0.286091 0.11393 0.243527
17813 9 0.361085 0.109397 0.250829
20366 9 0.254982 0.0825981 0.244964
17462 3 0.379391 0.0899698 0.213914
17825 9 0.378423 0.0389826 0.22181
17391 3 0.374852 0.0245382 0.218587
14878 6 0.373076 0.0629865 0.233109
14847 7 0.368662 0.0750111 0.228417
15031 7 0.41146 0.248166 0.238795
15272 9 0.47684 0.0151451 0.220421
14840 5 0.490485 0.0776754 0.199844
17465 5 0.388855 0.0847237 0.195658
14906 1 0.42186 0.112756 0.196339
17392 5 0.390932 0.0192939 0.198848
14849 1 0.424888 0.0524718 0.200313
14917 5 0.450848 0.0831761 0.202193
14837 5 0.450365 0.02099 0.20156
14911 4 0.475217 0.115244 0.205505
14834 2 0.473199 0.0903984 0.20605
14839 3 0.474832 0.0803532 0.217831
14955 6 0.416909 0.0638658 0.219397
15273 9 0.473244 0.0929379 0.222822
14922 7 0.428284 0.0620672 0.225002
14923 7 0.411521 0.0776108 0.220765
15308 7 0.473404 0.0546583 0.230107
14884 6 0.460697 0.0448147 0.232797
15297 7 0.468718 0.0287786 0.232346
15303 9 0.404509 0.0544996 0.241359
14868 8 0.445703 0.0515827 0.246362
14835 3 0.484337 0.0213199 0.214297
14874 3 0.415614 0.0537776 0.247996
14833 2 0.473788 0.0119517 0.203868
14838 5 0.489921 0.0168542 0.194399
12366 6 0.476458 0.112156 0.233238
14951 6 0.399815 0.114493 0.248774
14914 6 0.419981 0.113911 0.217524
12408 7 0.469473 0.116032 0.239468
14942 7 0.405792 0.122345 0.217341
14958 7 0.389832 0.177296 0.241004
14905 7 0.391945 0.100523 0.245502
14920 7 0.401631 0.176078 0.214627
25348 7 0.0134221 0.173688 0.225202
22795 7 0.100723 0.227486 0.219165
22718 6 0.100676 0.172549 0.245441
25310 7 0.0506 0.133293 0.237509
25484 9 0.0839328 0.132544 0.216774
25267 5 0.0894957 0.207658 0.195097
25265 5 0.0879757 0.146101 0.191419
25303 3 0.00958773 0.177105 0.244552
25260 2 0.0733047 0.140121 0.201131
25264 5 0.050078 0.147935 0.199048
25332 1 0.0205404 0.240086 0.198118
25276 1 0.02572 0.17731 0.198003
25342 5 0.0499308 0.206353 0.200665
25337 4 0.070625 0.242356 0.20366
25261 2 0.0723054 0.216658 0.20316
25266 3 0.0776251 0.206802 0.214266
25262 3 0.0837572 0.146613 0.212055
25485 9 0.0883646 0.194423 0.213341
22720 7 0.10322 0.16791 0.216334
25377 6 0.0166097 0.177247 0.217282
25507 7 0.0517696 0.180186 0.221408
25518 7 0.057803 0.154713 0.226307
25314 6 0.0570448 0.172094 0.228286
25297 8 0.040554 0.177406 0.241789
22751 3 0.111969 0.236574 0.246006
22758 7 0.115901 0.176195 0.242366
22830 7 0.0700997 0.234954 0.224739
22757 7 0.0907782 0.17372 0.239086
22756 6 0.115423 0.178297 0.214704
22706 1 0.11803 0.178661 0.194701
25378 6 0.0130448 0.240585 0.217831
22825 6 0.113149 0.236736 0.216099
25345 7 0.00237988 0.230452 0.214408
22724 1 0.125255 0.240681 0.19748
22796 7 0.123342 0.238379 0.222051
22719 7 0.123831 0.180379 0.221265
22960 9 0.100789 0.241307 0.239899
14910 3 0.476915 0.152288 0.214795
22965 7 0.16959 0.134085 0.23344
20169 7 0.221215 0.184241 0.247084
22646 5 0.189574 0.147305 0.191943
22713 5 0.189887 0.210078 0.19433
20103 1 0.225743 0.174399 0.194183
22716 5 0.147801 0.146337 0.192533
20154 1 0.220913 0.236912 0.194402
22722 7 0.149613 0.167451 0.241395
22645 4 0.167041 0.137767 0.208157
22712 5 0.150864 0.212578 0.198979
22639 2 0.169237 0.152063 0.198425
22708 2 0.172994 0.201871 0.202586
22711 4 0.16974 0.176289 0.201777
22710 3 0.180086 0.206508 0.214197
22932 9 0.181661 0.192741 0.219089
20204 6 0.220062 0.232782 0.214841
20092 3 0.228032 0.172887 0.213843
22721 7 0.148076 0.192831 0.241828
20406 9 0.215125 0.171483 0.219437
22745 8 0.142639 0.239585 0.243544
20166 6 0.181014 0.170898 0.226049
20206 7 0.166428 0.172109 0.230048
22755 6 0.143696 0.179932 0.237086
20205 7 0.17796 0.160335 0.219718
22762 6 0.153715 0.236916 0.2289
20203 6 0.206441 0.180054 0.248251
22966 7 0.163446 0.224803 0.226016
20170 7 0.200319 0.175106 0.241014
20167 7 0.211648 0.244822 0.217044
20090 5 0.249829 0.137771 0.19575
20168 7 0.210257 0.220771 0.217454
14844 7 0.410455 0.00133096 0.224906
17472 7 0.299243 0.120004 0.215774
17508 6 0.31579 0.12241 0.217354
20164 5 0.250912 0.200863 0.195917
17860 7 0.357981 0.00538405 0.227061
17549 7 0.26209 0.128895 0.220106
12329 7 0.44641 0.149312 0.22352
17618 7 0.28696 0.244795 0.224469
17581 7 0.300936 0.244329 0.240089
17651 6 0.28799 0.231271 0.228373
17617 7 0.28314 0.219129 0.223761
20091 5 0.290551 0.145176 0.193187
20094 5 0.290887 0.204465 0.194321
17531 1 0.320747 0.175193 0.19529
17551 1 0.32415 0.236703 0.195426
17538 5 0.351972 0.202723 0.195248
17543 5 0.350283 0.145772 0.198247
20085 2 0.27258 0.137608 0.200774
20086 8 0.257483 0.175884 0.217751
20087 2 0.271533 0.21096 0.20112
20159 4 0.272693 0.235869 0.201335
20088 5 0.266352 0.153893 0.209381
20093 4 0.270648 0.199992 0.21243
17547 7 0.329038 0.181129 0.221283
17540 3 0.331404 0.238409 0.214474
17579 6 0.318074 0.180775 0.215534
17546 7 0.303693 0.182105 0.219152
20136 6 0.272994 0.172531 0.231391
20413 7 0.275477 0.187035 0.236356
20402 7 0.266653 0.161365 0.237083
17534 8 0.362382 0.238036 0.217458
14996 7 0.352458 0.185225 0.238121
17814 9 0.357514 0.15493 0.244243
15026 6 0.353044 0.173048 0.232817
14997 7 0.340702 0.16555 0.234506
17536 5 0.370913 0.215325 0.209449
17461 2 0.373773 0.150263 0.203439
17571 3 0.357059 0.217723 0.249691
17533 2 0.374486 0.20022 0.200249
17854 9 0.320548 0.243279 0.220256
20367 9 0.272146 0.145344 0.250865
17537 4 0.377237 0.175494 0.202809
17850 7 0.375085 0.225503 0.236354
12328 7 0.434061 0.167179 0.22771
17545 6 0.309062 0.244632 0.246931
14947 3 0.459342 0.150385 0.247955
17539 5 0.392234 0.207281 0.192567
15275 9 0.462575 0.191381 0.215222
14925 1 0.426152 0.176024 0.195034
12399 6 0.493689 0.182848 0.24653
12407 7 0.467993 0.121956 0.228299
14919 6 0.401197 0.174633 0.246516
15262 9 0.451637 0.222527 0.243394
14957 7 0.411383 0.166741 0.241419
14909 2 0.474037 0.210723 0.20253
17827 9 0.368517 0.144835 0.219598
17467 3 0.378872 0.139099 0.214402
14979 1 0.42067 0.239601 0.193229
12353 7 0.484684 0.196246 0.245071
12352 7 0.483005 0.171249 0.244819
14908 2 0.471772 0.140244 0.204263
14941 7 0.427625 0.121066 0.223654
14904 7 0.387423 0.125667 0.24701
17468 5 0.391677 0.142113 0.195373
14916 5 0.491082 0.203233 0.194191
14956 6 0.415743 0.185795 0.21478
9739 6 0.447768 0.239413 0.231799
14921 7 0.411202 0.197958 0.219556
15261 9 0.445586 0.148651 0.243101
14952 3 0.458311 0.210796 0.24808
14985 4 0.477604 0.236124 0.202203
9777 7 0.456085 0.22984 0.227382
9776 7 0.443448 0.250369 0.2269
15274 9 0.485632 0.143876 0.219804
14912 5 0.449705 0.147278 0.199373
14991 5 0.450597 0.20742 0.197865
14913 5 0.488653 0.144878 0.194947
14915 3 0.474117 0.201432 0.213969
22933 9 0.181397 0.246418 0.21464
17580 7 0.32388 0.24964 0.246629
22918 9 0.178403 0.0341786 0.251102
20056 3 0.264335 0.0911163 0.249153
25304 4 0.0451091 0.201353 0.249817
22679 3 0.157404 0.141846 0.250174
14880 7 0.400097 0.00842276 0.24219
25178 3 0.0160727 0.0516127 0.301208
25245 3 0.0145461 0.114353 0.303985
25251 5 0.0104439 0.051162 0.281361
25246 4 0.025191 0.0854156 0.290951
25243 2 0.0243842 0.111202 0.292851
25224 1 0.0769144 0.0864963 0.288471
25179 5 0.049202 0.0541736 0.290305
25173 2 0.0246805 0.0606327 0.290234
25170 1 0.0738738 0.0210761 0.288649
25232 5 0.0704104 0.086448 0.26908
25230 5 0.074371 0.0275231 0.267836
22671 1 0.104716 0.0552643 0.268283
25171 1 0.00656938 0.0507792 0.262189
25229 5 0.0343049 0.0209392 0.262349
25306 5 0.0297118 0.0831403 0.2615
25226 2 0.0534097 0.0913326 0.260571
25225 2 0.0577506 0.0169362 0.260048
25496 9 0.0246123 0.037586 0.302653
25288 6 0.0776418 0.0870201 0.308502
22619 1 0.103654 0.117369 0.266305
25300 4 0.0504473 0.116052 0.259747
25248 5 0.0478807 0.120499 0.290838
22699 5 0.107034 0.115931 0.286928
22624 5 0.10891 0.0587067 0.288321
25247 5 0.00701799 0.119113 0.28472
22626 3 0.11508 0.117387 0.307532
25183 7 0.0501638 0.0172775 0.309202
25497 9 0.0198572 0.103078 0.309611
25257 7 0.0858753 0.101122 0.30781
25218 6 0.0661272 0.0204742 0.309736
25256 7 0.0891211 0.0756853 0.309144
22622 3 0.120258 0.0582667 0.307869
22623 4 0.122361 0.0237072 0.296264
22620 2 0.124385 0.0488207 0.296488
22621 2 0.122922 0.123782 0.296055
25174 3 0.0216515 0.00371426 0.303819
22681 5 0.133194 0.0208755 0.264101
19999 4 0.220841 0.0481653 0.303703
19993 2 0.225747 0.0628912 0.294755
20068 2 0.224655 0.112584 0.294626
20071 4 0.226068 0.0872352 0.29631
22625 5 0.149058 0.0550878 0.293841
22627 5 0.146542 0.115968 0.293031
22618 1 0.173161 0.0870272 0.29153
20076 5 0.209953 0.0575213 0.285509
22600 1 0.180155 0.0248424 0.291682
22609 5 0.1727 0.0250394 0.273066
22678 5 0.171519 0.0853864 0.27362
19990 1 0.208327 0.0559753 0.267142
22677 5 0.131991 0.0879018 0.266404
20129 5 0.231504 0.0873186 0.262707
20053 5 0.231326 0.0242925 0.263791
22602 2 0.156371 0.0308414 0.264275
22673 2 0.155679 0.0806551 0.264305
22676 4 0.155855 0.0559358 0.26197
20119 1 0.202082 0.118036 0.267485
20072 5 0.208269 0.11855 0.285695
22675 3 0.163585 0.0970099 0.25521
20070 3 0.216276 0.12224 0.305456
22608 3 0.168003 0.0227296 0.253739
19994 5 0.21755 0.00366225 0.30278
22665 6 0.189087 0.0830128 0.310867
22634 7 0.198483 0.0699328 0.308773
22633 7 0.19925 0.0944056 0.31111
19998 3 0.183842 0.0287119 0.311119
19992 8 0.213855 0.0254571 0.311967
14241 6 0.416074 0.00592647 0.397919
20000 5 0.249126 0.0563505 0.29209
20073 5 0.249228 0.117892 0.292323
20049 2 0.253918 0.0166265 0.260755
20124 4 0.253054 0.118794 0.263808
17440 8 0.317726 0.0858421 0.31121
17446 3 0.286857 0.0824166 0.30898
17442 5 0.320211 0.0638809 0.302341
17447 4 0.321002 0.109455 0.303136
17443 4 0.329244 0.0243328 0.294301
17439 2 0.32559 0.0492133 0.292893
20048 1 0.279539 0.0863029 0.289665
19989 1 0.273135 0.0231591 0.289064
17445 5 0.34739 0.0581011 0.289015
17444 5 0.307361 0.0539457 0.285135
20057 5 0.272666 0.0839276 0.268237
17495 1 0.301212 0.0560256 0.267468
17506 5 0.332286 0.0253222 0.266124
20054 5 0.270294 0.0267226 0.268556
17438 1 0.305463 0.119538 0.267014
17501 5 0.328745 0.0886155 0.263047
17421 2 0.355159 0.0319417 0.260665
20050 2 0.255223 0.0943571 0.260975
17497 2 0.352505 0.0817427 0.259479
20040 6 0.285289 0.0298533 0.308606
17500 4 0.354132 0.0563513 0.257236
17428 5 0.373503 0.0265581 0.268531
17448 5 0.350137 0.117508 0.29083
17502 5 0.369922 0.0891759 0.267919
17524 5 0.310105 0.119734 0.28604
24564 7 0.0765752 0.00465859 0.41486
20004 7 0.298243 0.0202502 0.311361
17427 4 0.353091 0.0156049 0.251852
20005 7 0.295406 0.041897 0.30738
1332 3 6.24962e-05 0.0556082 0.422336
17437 1 0.374135 0.0870231 0.287396
14875 4 0.455137 0.0736864 0.254201
14822 3 0.417316 0.0500169 0.306495
14891 4 0.425436 0.0851142 0.296942
14817 2 0.425939 0.0597594 0.295709
14887 2 0.425809 0.109917 0.29358
14823 5 0.448232 0.0509749 0.293292
17418 1 0.377217 0.0246729 0.28744
14893 5 0.450517 0.11567 0.290338
14897 5 0.409643 0.0550139 0.286142
14892 5 0.410665 0.11669 0.284828
14866 1 0.480614 0.0860137 0.290423
14814 1 0.472948 0.0222416 0.292511
14873 5 0.471151 0.0232824 0.270801
14876 5 0.473817 0.0863866 0.27032
14815 1 0.40709 0.0555041 0.266494
14943 1 0.403169 0.116944 0.268401
14954 5 0.432363 0.0902027 0.267345
17412 6 0.382174 0.024448 0.308629
14869 2 0.455072 0.0917519 0.262571
14872 5 0.428585 0.0135635 0.26847
14867 2 0.452249 0.0141156 0.264499
14948 4 0.457203 0.115853 0.25852
14860 6 0.482614 0.0852296 0.311636
14870 5 0.449856 0.0293032 0.255261
17380 7 0.394212 0.014397 0.310924
15286 9 0.418307 0.0346095 0.306534
14900 7 0.458212 0.134676 0.305769
17379 7 0.388652 0.038334 0.309045
16883 5 0.391567 0.149037 0.470119
14828 7 0.496481 0.093297 0.311332
25321 5 0.00215783 0.247879 0.283958
25296 2 0.0505007 0.14142 0.260542
25241 1 0.0731941 0.150207 0.289157
25249 3 0.0164175 0.183384 0.303957
25360 6 0.0768811 0.215654 0.307393
25320 4 0.0212695 0.214689 0.291154
25317 2 0.0219625 0.239312 0.291002
25295 1 0.0755377 0.212131 0.286797
25250 5 0.0463701 0.184309 0.28914
25244 2 0.0220604 0.189161 0.292061
25325 5 0.00637395 0.180152 0.28347
25302 5 0.0691212 0.149414 0.267748
25305 5 0.0677787 0.209335 0.266668
22742 1 0.0959745 0.178258 0.265946
25301 5 0.0277039 0.149456 0.264375
25242 1 0.00256553 0.180633 0.263868
25376 5 0.0266472 0.216557 0.264012
25298 2 0.0500475 0.217294 0.258493
25371 4 0.0548203 0.241705 0.255644
22690 1 0.101687 0.240378 0.265322
22695 5 0.106018 0.178773 0.286337
22773 5 0.107924 0.240891 0.284875
25331 7 0.084843 0.22869 0.309148
22693 3 0.114795 0.182592 0.305485
25322 5 0.0456335 0.246101 0.289202
22697 3 0.109478 0.247606 0.304643
25499 9 0.0166607 0.235501 0.307666
25299 5 0.0486417 0.154295 0.24994
24597 6 0.0661662 0.00281245 0.408679
25330 7 0.0890529 0.203869 0.307688
25498 9 0.0220732 0.194212 0.308792
22945 9 0.109856 0.172621 0.310719
25289 6 0.0775809 0.14658 0.309744
25254 7 0.0921556 0.140145 0.309138
25319 3 0.0157424 0.247193 0.30275
22691 2 0.122948 0.173348 0.294718
22694 4 0.125264 0.148537 0.294408
22920 9 0.162293 0.12723 0.251497
22748 4 0.153542 0.177397 0.260355
22674 2 0.150711 0.152977 0.261137
22754 5 0.127457 0.145812 0.264715
20202 5 0.228637 0.211558 0.265148
22672 1 0.174393 0.149234 0.289106
20142 4 0.218423 0.211343 0.295695
20147 5 0.207382 0.175744 0.287975
22696 5 0.144937 0.183445 0.291879
20074 3 0.216731 0.178328 0.308305
20069 2 0.221563 0.186446 0.296559
22689 1 0.169174 0.211123 0.289703
20139 2 0.221269 0.236381 0.294384
20067 1 0.202566 0.180154 0.267823
22680 5 0.167688 0.147136 0.269844
22750 5 0.171116 0.212439 0.268444
22749 5 0.127892 0.208407 0.267398
20125 5 0.230284 0.152274 0.267309
22744 2 0.150892 0.203131 0.262573
22737 6 0.176498 0.209057 0.309256
22698 5 0.145175 0.243023 0.29247
20190 1 0.197675 0.240871 0.265928
20141 3 0.216418 0.244554 0.305851
20144 5 0.245433 0.242811 0.291295
20143 5 0.203208 0.244445 0.287349
22747 5 0.150129 0.217712 0.252664
20075 5 0.245234 0.181655 0.293695
22704 7 0.18739 0.133186 0.311553
20393 9 0.214924 0.232103 0.310661
22705 7 0.185404 0.158076 0.311354
22736 6 0.177109 0.145483 0.309333
20392 9 0.22302 0.189685 0.313256
20391 9 0.216745 0.138225 0.305217
20081 7 0.249752 0.163078 0.310643
22944 9 0.121273 0.1037 0.309744
24710 7 0.0246829 0.24304 0.401831
17441 2 0.327487 0.125269 0.294336
20122 2 0.25112 0.214213 0.260144
20121 2 0.252985 0.144109 0.264828
17572 4 0.357703 0.179542 0.258941
20126 5 0.271259 0.151228 0.272547
20066 1 0.273051 0.149363 0.292715
17516 2 0.327007 0.17486 0.296141
17518 3 0.328372 0.187276 0.307208
20114 6 0.283451 0.214868 0.309157
17519 4 0.324455 0.149582 0.297323
17521 5 0.349354 0.178696 0.291183
20120 1 0.275361 0.210214 0.288493
17520 5 0.307156 0.182457 0.289316
17595 5 0.309031 0.24407 0.284676
17567 1 0.302364 0.18041 0.26885
20128 5 0.269487 0.208823 0.267931
17577 5 0.331756 0.151363 0.264664
17573 5 0.329094 0.209191 0.263695
17498 2 0.355391 0.154605 0.261061
17569 2 0.353246 0.204622 0.259916
20196 4 0.252382 0.239504 0.258665
20113 6 0.257995 0.148626 0.311513
17523 5 0.349616 0.237707 0.28968
17515 1 0.302392 0.241989 0.266843
17839 9 0.327501 0.203667 0.305714
17574 5 0.370479 0.212878 0.268371
17505 5 0.373616 0.148136 0.269208
17522 3 0.323181 0.238927 0.304843
17517 2 0.327742 0.248351 0.292937
20080 7 0.295562 0.225511 0.307806
17504 3 0.35998 0.144217 0.249813
11637 7 0.497896 0.023159 0.493104
17561 6 0.37281 0.21398 0.309147
17530 7 0.359754 0.216804 0.313117
20123 3 0.259991 0.153376 0.253702
20368 9 0.259965 0.185537 0.252097
14901 7 0.475478 0.122729 0.311581
17514 1 0.37466 0.210436 0.288864
14890 5 0.422209 0.124801 0.302595
17496 1 0.381129 0.149285 0.289516
15020 4 0.453889 0.243525 0.260711
14945 2 0.45402 0.140732 0.25925
14886 1 0.407497 0.180632 0.266171
14894 3 0.38421 0.148922 0.309561
14972 5 0.408367 0.183068 0.282763
14896 5 0.448169 0.178816 0.288617
14888 8 0.414626 0.149372 0.309789
12342 3 0.477622 0.206138 0.307231
14895 4 0.419659 0.171001 0.30072
14964 2 0.424116 0.235753 0.295035
14967 4 0.42384 0.210538 0.29611
14889 2 0.42557 0.185805 0.291971
14944 1 0.478037 0.210888 0.288485
14885 1 0.476946 0.148277 0.287392
14953 5 0.472263 0.207475 0.266841
14936 6 0.473097 0.137254 0.30816
14950 5 0.471441 0.149286 0.267233
15025 5 0.430327 0.211294 0.262751
14949 5 0.43144 0.14698 0.26393
14946 2 0.453801 0.218462 0.260001
15015 1 0.399309 0.242381 0.266088
14969 5 0.447317 0.240056 0.289772
14968 5 0.405439 0.244281 0.288249
14966 3 0.423779 0.245456 0.306379
25184 7 0.0688684 0.0233898 0.317024
25185 7 0.0262087 0.0724506 0.313925
24544 6 0.0875274 0.0343313 0.335199
24654 7 0.109243 0.0914622 0.333576
24655 7 0.091612 0.0806129 0.32735
24614 6 0.0958605 0.0821636 0.334906
24820 9 0.0216105 0.0577809 0.334797
24550 1 0.0907029 0.0874882 0.355028
24571 2 0.0351831 0.0599508 0.350171
24576 3 0.0260774 0.0461502 0.339837
24577 5 0.0596677 0.0554767 0.352857
24639 2 0.0370674 0.109111 0.35084
24643 4 0.0348604 0.0852126 0.348118
24644 5 0.0185712 0.11529 0.35949
24645 5 0.0603332 0.11433 0.354148
24649 5 0.0203295 0.0548961 0.359939
24568 1 0.0873014 0.0249939 0.354935
22022 5 0.120656 0.0602584 0.356197
22097 5 0.123111 0.120678 0.357994
25186 7 0.0466597 0.08518 0.31627
25217 6 0.0300204 0.0849964 0.317708
24582 7 0.0955659 0.0484734 0.333497
24581 7 0.0728829 0.0409354 0.335034
24557 5 0.0836351 0.0260111 0.375578
24739 6 0.0124643 0.244408 0.396584
22267 9 0.128386 0.0632497 0.335821
21945 2 0.140607 0.000354039 0.352722
22943 9 0.132962 0.0575381 0.312644
22266 9 0.13573 0.0129304 0.336879
20409 9 0.174397 0.031173 0.318483
22024 3 0.131122 0.109715 0.338198
22020 3 0.135988 0.0511389 0.337413
22032 7 0.169488 0.033626 0.338002
22021 4 0.1406 0.0258732 0.354156
20065 6 0.229507 0.0208194 0.325198
22631 7 0.194399 0.0848434 0.327238
22632 7 0.212584 0.0967995 0.334569
19714 9 0.23106 0.0657163 0.337037
22666 6 0.201426 0.0847089 0.334429
19468 3 0.242341 0.110771 0.337063
19398 3 0.240231 0.0553066 0.341295
19466 2 0.24215 0.110759 0.34962
19469 4 0.242662 0.0861341 0.353892
19393 2 0.240886 0.0612427 0.353412
19474 5 0.219138 0.0536212 0.358761
22016 1 0.187842 0.0891917 0.353877
22018 2 0.139978 0.050045 0.350058
22023 5 0.162595 0.0590564 0.353369
22025 5 0.162226 0.117108 0.35056
21925 1 0.192444 0.0270794 0.357709
21991 6 0.182028 0.0252852 0.337306
22031 7 0.174687 0.0112809 0.337795
20416 7 0.224282 0.0277072 0.332507
19470 5 0.22238 0.12128 0.355128
20415 7 0.236948 0.00571831 0.327559
22268 9 0.131435 0.118991 0.331774
22019 2 0.137987 0.123266 0.348283
1860 9 0.00130597 0.127294 0.418914
17838 9 0.331729 0.00332427 0.312573
19715 9 0.255427 0.117417 0.334642
17454 7 0.343335 0.0136768 0.329319
17857 9 0.274608 0.0796013 0.314362
20006 7 0.283339 0.0230575 0.328138
17455 7 0.355055 0.0260237 0.319174
20007 7 0.266212 0.02739 0.335704