ITEM: TIMESTEP
342000
ITEM: NUMBER OF ATOMS
25520
ITEM: BOX BOUNDS pp pp pp
-3.8206633080825553e-01 6.0080609920808669e+01
-1.9376406426291690e+00 5.9107925916630300e+01
-1.2630227087833843e+01 1.1190595949384054e+02
ITEM: ATOMS id type xs ys zs
25182 6 0.108183 0.0110531 0.151903
25252 6 0.109016 0.0823289 0.149676
25214 3 0.0374248 0.0454946 0.154329
25287 5 0.0348941 0.0526985 0.174144
25283 5 0.0732958 0.115772 0.167887
25282 5 0.032268 0.113972 0.174857
25281 4 0.0477248 0.0845238 0.162046
25277 2 0.0490186 0.109252 0.165532
25215 5 0.0730195 0.0530265 0.166571
25209 2 0.0486752 0.0590707 0.164286
25188 1 0.103697 0.0829307 0.169721
25458 9 0.0494652 0.0380357 0.151359
25206 1 0.0994261 0.0232127 0.170516
2433 1 0.00622477 0.0187588 0.175127
25292 7 0.116307 0.0679234 0.148164
25293 7 0.119211 0.0934654 0.147301
25280 5 0.0401669 0.123947 0.156571
25219 7 0.12003 0.0208313 0.149934
22735 5 0.133577 0.116386 0.171791
22660 5 0.134332 0.0555824 0.171241
22905 9 0.155467 0.0515944 0.147682
22662 3 0.141446 0.112851 0.152897
22658 3 0.144153 0.047426 0.152319
22656 2 0.152323 0.0439003 0.16405
20112 5 0.235311 0.0506476 0.170813
22663 5 0.17397 0.117372 0.166515
22654 1 0.199392 0.0841858 0.167741
22661 5 0.174921 0.0534378 0.167352
22669 7 0.224551 0.0310186 0.150698
22659 4 0.152187 0.0192925 0.165552
22563 1 0.206844 0.0201765 0.171089
22629 6 0.211185 0.0225925 0.151454
22630 6 0.207703 0.0866732 0.148355
22667 7 0.219694 0.0768414 0.146113
22668 7 0.212567 0.101161 0.146456
20108 5 0.232802 0.116482 0.167736
22906 9 0.148854 0.117994 0.146631
22657 2 0.149719 0.123654 0.163238
22670 7 0.213595 0.0109599 0.146041
20036 3 0.247446 0.0527399 0.15142
20106 3 0.249878 0.112445 0.149545
20353 9 0.259311 0.103145 0.145246
14992 6 0.410884 0.239037 0.245004
20107 4 0.255784 0.0825797 0.164067
20352 9 0.26069 0.0499838 0.14727
20042 7 0.311971 0.014523 0.143093
20104 2 0.253521 0.107736 0.161634
20031 2 0.25391 0.0581268 0.163363
20118 7 0.317249 0.0905092 0.148648
20117 7 0.322629 0.065957 0.14731
20077 6 0.310067 0.0758915 0.148856
17480 3 0.347853 0.0473952 0.151468
17799 9 0.359616 0.0552414 0.148068
17478 2 0.354012 0.0444289 0.163569
20109 5 0.27514 0.117597 0.166516
17482 5 0.334668 0.0521653 0.171164
20037 5 0.276203 0.0477078 0.167206
20011 1 0.30495 0.0835973 0.169054
20028 1 0.298155 0.0186981 0.16891
17481 4 0.356498 0.0192821 0.165624
20003 6 0.307912 0.0241568 0.149199
17560 5 0.334177 0.115412 0.170198
17484 3 0.343838 0.112006 0.150538
20041 7 0.314038 0.0383321 0.14814
17479 2 0.351406 0.122277 0.161966
17800 9 0.336878 0.123381 0.146292
17485 5 0.374888 0.116545 0.165428
17483 5 0.376173 0.0540531 0.168211
17490 7 0.406608 0.0575946 0.148382
17489 7 0.423801 0.0767397 0.149572
17451 6 0.407947 0.0741317 0.14921
14856 3 0.4478 0.0424375 0.156009
15246 9 0.458919 0.0423944 0.150422
14929 4 0.451537 0.0808587 0.161688
14926 2 0.451745 0.105939 0.163872
14851 2 0.45338 0.056296 0.165713
14931 5 0.475251 0.112186 0.168427
14857 5 0.47663 0.0528883 0.170414
17476 1 0.400351 0.0851686 0.169057
14934 5 0.434369 0.0518175 0.17407
14930 5 0.434171 0.112888 0.171879
17384 1 0.405186 0.0209726 0.17134
17450 6 0.405912 0.0178518 0.149982
17492 7 0.420762 0.022192 0.149328
17491 7 0.403499 0.00651487 0.14462
14928 3 0.448469 0.117709 0.152735
14862 7 0.49338 0.0398811 0.155491
14875 4 0.461745 0.0750652 0.249208
15247 9 0.462704 0.121535 0.149361
25353 3 0.0452161 0.242688 0.156015
2103 7 0.0170888 0.203648 0.157426
2065 6 0.00129934 0.200276 0.155894
2033 7 0.0479688 0.14393 0.13175
25253 6 0.103329 0.156914 0.150023
2032 7 0.0458385 0.171313 0.134462
1995 6 0.0390805 0.155805 0.136086
25275 1 0.0979053 0.147119 0.169432
25278 8 0.0331469 0.150255 0.151324
22957 9 0.0885062 0.211934 0.149239
22732 3 0.102974 0.206927 0.153431
25285 4 0.043276 0.170579 0.160239
25359 5 0.0325318 0.177451 0.178743
25356 5 0.0725193 0.237291 0.171003
25354 4 0.0462497 0.207882 0.167772
25351 2 0.04899 0.232688 0.167217
25286 5 0.0717892 0.172411 0.173647
25279 2 0.0491459 0.183081 0.170415
25259 1 0.102447 0.209269 0.173273
25355 5 0.0309393 0.241546 0.174344
25433 7 0.0532041 0.192981 0.146304
25394 6 0.0558442 0.202727 0.140371
25432 7 0.0505319 0.216388 0.143512
1933 1 0.00293206 0.144266 0.174291
25291 7 0.101156 0.172829 0.148504
25284 3 0.00367466 0.149311 0.15673
25290 7 0.120069 0.154869 0.150624
1963 7 0.145685 0.234995 0.134076
1962 7 0.151687 0.209516 0.129776
22741 7 0.227749 0.133362 0.147075
22740 7 0.223094 0.15805 0.148337
1927 6 0.139941 0.217011 0.133896
22726 8 0.131728 0.210972 0.148919
22730 5 0.134518 0.177458 0.173681
22700 6 0.215445 0.143366 0.149335
22636 1 0.204696 0.14578 0.169151
22729 4 0.147775 0.149193 0.161361
22733 4 0.140918 0.232877 0.157476
20188 7 0.223351 0.225698 0.151101
20189 7 0.221293 0.201417 0.150348
20148 6 0.211861 0.214314 0.148766
22728 5 0.14384 0.187761 0.155119
22725 2 0.151538 0.173481 0.164468
20178 5 0.231194 0.241685 0.172755
20183 5 0.23463 0.178091 0.171434
22723 1 0.200638 0.209559 0.169735
22731 5 0.175304 0.179279 0.166971
22734 5 0.172916 0.23973 0.170049
22807 5 0.133592 0.240111 0.176853
20110 3 0.246561 0.177354 0.152099
22727 2 0.148788 0.246452 0.167614
20354 9 0.256342 0.165742 0.150598
20177 4 0.251525 0.212812 0.162374
20173 2 0.251613 0.23782 0.165159
20105 2 0.251789 0.187576 0.163472
17555 4 0.345752 0.146279 0.160071
20102 1 0.299313 0.14688 0.169983
17554 3 0.34805 0.182881 0.150543
17801 9 0.350549 0.198382 0.150707
17558 3 0.346981 0.235943 0.152446
17552 2 0.350515 0.171387 0.161789
17556 5 0.334695 0.180449 0.170168
20111 5 0.274302 0.179444 0.167314
20084 1 0.304776 0.208863 0.17038
20179 5 0.274946 0.24348 0.169386
17631 5 0.333566 0.240492 0.171434
17802 9 0.353925 0.244105 0.146296
17553 2 0.350303 0.248948 0.163023
17557 5 0.37428 0.17663 0.165327
17559 5 0.373614 0.241302 0.166063
14920 7 0.42657 0.179541 0.217181
17564 7 0.383729 0.22176 0.148595
17566 7 0.42643 0.139261 0.149188
17563 7 0.396659 0.210179 0.140197
14938 7 0.453937 0.194936 0.140293
14937 7 0.432067 0.205962 0.135861
17565 7 0.405716 0.145209 0.142115
17525 6 0.413033 0.148653 0.148884
17459 1 0.404951 0.147201 0.168707
17526 6 0.397596 0.213828 0.147508
14899 6 0.44772 0.208472 0.136731
15248 9 0.438435 0.166247 0.149303
15002 3 0.450908 0.24043 0.151532
14932 3 0.45341 0.171787 0.150553
15000 2 0.454248 0.231987 0.16338
15003 4 0.456701 0.207673 0.161733
14927 2 0.455208 0.18204 0.162016
15005 5 0.475556 0.243325 0.167255
14933 5 0.476705 0.173771 0.167134
15004 5 0.434505 0.237479 0.170734
17550 1 0.397815 0.209687 0.167807
15008 5 0.435435 0.174947 0.168262
15249 9 0.450746 0.227475 0.14667
14940 7 0.507395 0.157232 0.146091
15275 9 0.47283 0.197768 0.212552
25231 3 0.0650982 0.0755241 0.249274
25269 6 0.00335337 0.108653 0.244627
25471 9 0.0735758 0.0194251 0.245053
25198 5 0.0978435 0.0847827 0.189706
25195 5 0.100289 0.0244643 0.191879
25268 5 0.0579335 0.0833956 0.191161
25258 1 0.0272548 0.112879 0.194274
25207 1 0.0346885 0.0533933 0.194751
25191 2 0.0781295 0.0920565 0.196718
25263 4 0.080017 0.117373 0.198661
25197 4 0.0794224 0.0785639 0.207409
25192 5 0.0769535 0.0326996 0.207702
25196 3 0.0399871 0.0595421 0.21436
25190 8 0.0710893 0.0559978 0.215803
25510 9 0.0315114 0.0727152 0.218014
25517 7 0.0827925 0.0706826 0.23525
25240 6 0.0863536 0.0600616 0.229411
22685 7 0.0876336 0.101067 0.217139
25506 7 0.0910567 0.0457983 0.233787
22649 6 0.0901949 0.112442 0.222888
25194 5 0.0571574 0.0142211 0.19501
25189 2 0.0814746 0.0165785 0.198786
25201 6 0.0187156 0.0479397 0.244927
22684 7 0.0762448 0.110547 0.227557
25270 6 0.0552915 0.116278 0.236607
22760 7 0.0952706 0.115433 0.240394
25308 6 0.0266076 0.113027 0.213974
22717 6 0.108921 0.119135 0.244851
25204 7 0.0479882 0.0196595 0.212886
25310 7 0.0522429 0.101692 0.239913
25205 7 0.0234881 0.0137202 0.217369
25237 7 0.0345231 0.0534775 0.244367
22650 7 0.119253 0.0697316 0.214548
25234 6 0.0379173 0.00645934 0.215214
17511 7 0.275078 0.00532963 0.220342
22958 9 0.123878 0.12288 0.214171
25236 7 0.0210873 0.0324994 0.247708
25309 7 0.0588126 0.126166 0.242705
25202 7 0.0738694 0.00965767 0.227897
25235 6 0.0698564 0.00331785 0.234889
22759 7 0.119767 0.106977 0.243087
25271 7 0.0329431 0.111633 0.220949
14919 6 0.422289 0.181393 0.243894
22643 5 0.198291 0.0871567 0.187352
17509 7 0.235532 0.00606206 0.227346
20062 7 0.137778 0.0705973 0.231881
20061 7 0.136482 0.0939516 0.226017
22683 6 0.127406 0.05581 0.212582
22572 5 0.196974 0.0206 0.190637
22651 7 0.132634 0.0483551 0.219492
22686 7 0.147572 0.0241764 0.22381
22635 1 0.126222 0.0520075 0.192019
20083 1 0.227826 0.11622 0.189514
20134 7 0.226516 0.0632124 0.242108
22687 7 0.16263 0.0461462 0.22598
22648 6 0.149179 0.0367997 0.228868
20023 6 0.135727 0.0869221 0.233096
22919 9 0.152057 0.0922542 0.243725
22931 9 0.179969 0.0284941 0.21592
22655 1 0.130425 0.113805 0.191548
20029 1 0.231455 0.0528165 0.191409
22642 5 0.158933 0.0861073 0.191403
20063 7 0.194231 0.0497916 0.219969
22637 2 0.180876 0.0790323 0.195974
22641 4 0.182806 0.0544579 0.199489
22565 2 0.180734 0.0288691 0.199139
22640 5 0.178179 0.0935566 0.206149
20060 6 0.236504 0.0546121 0.210626
20022 6 0.185443 0.0611072 0.222568
20064 7 0.181569 0.0700104 0.215776
22647 5 0.157132 0.0235843 0.195555
20096 6 0.214267 0.0572102 0.245095
22571 3 0.188875 0.022941 0.210318
22638 8 0.167378 0.116032 0.214323
22918 9 0.164823 0.0259722 0.242305
22965 7 0.177855 0.101957 0.233664
20135 7 0.203998 0.0601579 0.239325
20098 7 0.237825 0.105205 0.214433
20025 7 0.23741 0.0675364 0.21486
20131 6 0.22716 0.111874 0.209587
22644 3 0.137125 0.114924 0.210699
20099 7 0.213498 0.1043 0.211195
22688 6 0.180968 0.114648 0.228507
17471 6 0.242091 0.0172554 0.232048
17510 7 0.24417 0.0300538 0.227836
22675 3 0.165852 0.0938147 0.248559
20097 6 0.217382 0.111877 0.244515
20133 7 0.22782 0.103361 0.240926
20132 7 0.209976 0.117708 0.23828
20130 6 0.251736 0.0921295 0.228173
22954 7 0.177409 0.128549 0.2335
22608 3 0.168786 0.0192072 0.249378
20101 7 0.253932 0.0909711 0.235871
20024 7 0.249531 0.0465662 0.2135
20100 7 0.26554 0.0980541 0.225138
20056 3 0.266298 0.0759061 0.248424
20051 3 0.269412 0.0289752 0.247923
20365 9 0.257659 0.0255222 0.243113
20020 5 0.295527 0.0845231 0.188749
20017 5 0.295732 0.0207495 0.190089
20016 5 0.256261 0.0224002 0.192086
17477 1 0.331869 0.115912 0.190742
17458 1 0.32429 0.051939 0.190137
20095 5 0.255898 0.0835829 0.192897
17464 5 0.352888 0.0849832 0.191853
20013 2 0.27822 0.090552 0.196869
20379 9 0.274716 0.0638606 0.207443
20089 4 0.284027 0.115316 0.199143
20019 3 0.280553 0.0787078 0.207962
20378 9 0.291592 0.0329473 0.211317
17466 6 0.319167 0.0540408 0.211484
17493 7 0.306777 0.0633494 0.212899
17494 7 0.331223 0.0613198 0.215529
17473 7 0.338477 0.105641 0.215204
14960 7 0.360774 0.0856621 0.219469
17548 7 0.289227 0.112993 0.215761
14918 6 0.348776 0.0823221 0.224801
14959 7 0.355116 0.080914 0.231508
17469 5 0.353963 0.0202876 0.193497
17456 7 0.29695 0.0483922 0.243416
17457 7 0.320466 0.0580173 0.240478
20014 3 0.27758 0.0295235 0.20872
20012 2 0.277551 0.0162699 0.198016
17503 6 0.311614 0.0524754 0.246549
17499 3 0.368923 0.0832709 0.244908
17508 6 0.332958 0.119004 0.211776
17578 6 0.29119 0.118661 0.222933
17472 7 0.319274 0.120857 0.21553
17825 9 0.364435 0.0181723 0.213987
17860 7 0.37515 0.000160956 0.226521
17583 7 0.307916 0.116001 0.236546
20366 9 0.266772 0.0606909 0.250215
17544 6 0.309175 0.115556 0.244128
17582 7 0.293158 0.119346 0.246076
17463 4 0.378369 0.0517062 0.196519
17813 9 0.380098 0.0953615 0.24554
14838 5 0.496194 0.020527 0.193243
14847 7 0.385419 0.0203951 0.24216
17465 5 0.395036 0.0839761 0.188314
14846 7 0.407467 0.03133 0.240446
14878 6 0.397371 0.0208341 0.236766
17460 2 0.376588 0.0765026 0.195863
17386 2 0.376149 0.0263771 0.198278
15272 9 0.483879 0.00758157 0.217889
17462 3 0.382214 0.0856374 0.20714
17391 3 0.377989 0.0218853 0.210368
14906 1 0.426823 0.114821 0.191058
17392 5 0.398281 0.0184897 0.192194
17826 9 0.391987 0.0762826 0.210985
14849 1 0.429529 0.0516558 0.194105
14917 5 0.455613 0.081823 0.195759
14837 5 0.455924 0.0227537 0.197568
14911 4 0.476074 0.117173 0.198513
14834 2 0.476012 0.0928152 0.200985
14839 3 0.478106 0.0899294 0.213331
14955 6 0.418159 0.0546351 0.214314
15273 9 0.486334 0.102326 0.216406
14922 7 0.427675 0.053819 0.220651
14923 7 0.407023 0.0432804 0.214802
15308 7 0.464288 0.0637962 0.222794
14884 6 0.456976 0.0495705 0.22655
15297 7 0.466 0.0358662 0.223386
15303 9 0.40966 0.0666097 0.241724
14868 8 0.449973 0.0534796 0.241674
14835 3 0.485665 0.0203012 0.213247
14874 3 0.419624 0.0554063 0.245395
14833 2 0.477939 0.0148016 0.201364
14951 6 0.402886 0.116418 0.245103
12291 6 0.438973 0.117435 0.230333
14904 7 0.409896 0.114859 0.238194
12329 7 0.452666 0.114981 0.227053
14942 7 0.427343 0.123832 0.216887
14914 6 0.421677 0.121278 0.209533
12366 6 0.482286 0.129497 0.227339
14840 5 0.496163 0.082864 0.195096
14941 7 0.407631 0.12964 0.20936
12328 7 0.443344 0.126305 0.236885
25272 7 0.0137061 0.12181 0.215449
25343 6 0.0138384 0.235127 0.241979
25484 9 0.0843523 0.131532 0.215188
25267 5 0.0980243 0.203364 0.193944
25265 5 0.0987539 0.149311 0.192152
25348 7 0.0306019 0.173829 0.222135
25347 7 0.00894791 0.166055 0.21646
25512 9 0.0119763 0.184355 0.239455
25303 3 0.0241371 0.178847 0.244328
25260 2 0.0798368 0.142598 0.199384
25264 5 0.0560083 0.148742 0.196877
25332 1 0.0271354 0.237921 0.196537
25276 1 0.0327515 0.176515 0.195914
25342 5 0.0573793 0.209097 0.199355
25337 4 0.0826245 0.238512 0.20161
25261 2 0.0810268 0.213286 0.202118
25266 3 0.091508 0.206931 0.213184
25262 3 0.0861142 0.147398 0.211336
25485 9 0.100478 0.193335 0.211953
22720 7 0.113032 0.168375 0.214353
25377 6 0.0221942 0.17516 0.215275
25507 7 0.0711751 0.188241 0.223033
25518 7 0.0705499 0.160207 0.222166
25314 6 0.0629007 0.174456 0.226392
25297 8 0.054043 0.174478 0.241146
22718 6 0.109602 0.172787 0.245357
22830 7 0.0834996 0.226513 0.226801
22791 6 0.0792968 0.238114 0.232007
22829 7 0.0778844 0.230911 0.238772
25378 6 0.0276901 0.237694 0.217633
25381 7 0.0160174 0.233784 0.234416
25345 7 0.0411252 0.242757 0.221298
22960 9 0.11189 0.247706 0.240442
25304 4 0.0622255 0.198151 0.248738
22757 7 0.105218 0.159634 0.241308
22751 3 0.12187 0.240538 0.245615
22795 7 0.113624 0.230494 0.219835
22756 6 0.127308 0.174327 0.212805
2441 5 0.00177419 0.0169219 0.197332
25299 5 0.0604744 0.152409 0.249728
22758 7 0.125731 0.174836 0.242971
22796 7 0.136194 0.241564 0.222881
22920 9 0.169586 0.124824 0.249386
22825 6 0.124887 0.241065 0.216983
22679 3 0.165812 0.140244 0.248784
14844 7 0.408553 0.002127 0.216389
22646 5 0.198068 0.14687 0.188425
22706 1 0.127855 0.174798 0.192167
22713 5 0.195423 0.208023 0.190331
20103 1 0.230041 0.177088 0.191147
22719 7 0.135223 0.174742 0.219543
22716 5 0.155776 0.15278 0.191243
20154 1 0.225726 0.238893 0.193219
22724 1 0.131727 0.239393 0.196825
22722 7 0.154521 0.191143 0.239258
22645 4 0.175364 0.137612 0.205491
22712 5 0.155474 0.209733 0.196654
22639 2 0.17863 0.152251 0.195533
22708 2 0.178703 0.201513 0.199097
22711 4 0.181781 0.176045 0.200208
22710 3 0.184235 0.210367 0.210784
22932 9 0.187363 0.196709 0.21534
20167 7 0.208754 0.22658 0.214752
20204 6 0.219548 0.239251 0.21388
20092 3 0.235839 0.178281 0.210307
22721 7 0.15789 0.167263 0.2413
20406 9 0.221932 0.182405 0.215002
22966 7 0.175272 0.224672 0.225626
22745 8 0.153889 0.239714 0.243073
20166 6 0.191098 0.174444 0.222923
20206 7 0.178397 0.178107 0.226094
22755 6 0.15448 0.177402 0.235214
20205 7 0.189864 0.162135 0.217804
22762 6 0.172095 0.239309 0.230053
20169 7 0.21274 0.173204 0.239098
20203 6 0.225432 0.180058 0.242843
20170 7 0.234779 0.167248 0.243944
1949 1 -5.0063e-05 0.0813424 0.173528
20367 9 0.264663 0.168148 0.249535
20123 3 0.266928 0.152413 0.248817
17617 7 0.275257 0.243756 0.232699
20091 5 0.298005 0.147603 0.188641
20368 9 0.25095 0.197094 0.246734
17827 9 0.365462 0.137956 0.209589
20094 5 0.296183 0.20807 0.190285
20127 3 0.265331 0.199968 0.249591
17571 3 0.364163 0.216494 0.246363
17549 7 0.288849 0.134602 0.222232
17531 1 0.327636 0.178202 0.191094
20090 5 0.257354 0.137499 0.190232
17551 1 0.331075 0.240409 0.191447
17538 5 0.357709 0.210373 0.190666
20164 5 0.256032 0.212186 0.192943
17543 5 0.356932 0.145149 0.192603
20085 2 0.279619 0.140793 0.196158
20086 8 0.265025 0.174825 0.214627
20087 2 0.278205 0.21552 0.198663
20159 4 0.284376 0.239559 0.201117
20088 5 0.27352 0.152997 0.206012
20093 4 0.277661 0.199867 0.208128
17547 7 0.328468 0.202649 0.211835
17540 3 0.338389 0.239669 0.209183
17579 6 0.319879 0.19014 0.209952
17546 7 0.304264 0.197878 0.209152
20136 6 0.277866 0.169268 0.228559
20413 7 0.273406 0.181356 0.234361
20402 7 0.270602 0.155522 0.232934
17534 8 0.368674 0.240953 0.213033
17580 7 0.335527 0.231856 0.244884
17545 6 0.322419 0.242814 0.24451
17815 9 0.366096 0.204022 0.241082
17814 9 0.368268 0.156957 0.24257
14921 7 0.44224 0.167702 0.209184
17504 3 0.367714 0.144877 0.247745
15262 9 0.462155 0.220204 0.241129
15030 7 0.396562 0.233591 0.242737
14908 2 0.47543 0.142791 0.197447
17537 4 0.379824 0.17902 0.197313
15026 6 0.375135 0.179182 0.231598
14910 3 0.477763 0.153784 0.208964
14957 7 0.431704 0.193332 0.241849
12353 7 0.490594 0.191813 0.24375
14996 7 0.390848 0.176627 0.231329
12408 7 0.476628 0.136011 0.233778
14958 7 0.432902 0.168409 0.243975
17584 6 0.377742 0.248127 0.227784
14952 3 0.466803 0.209018 0.246443
14915 3 0.485149 0.206674 0.210469
14916 5 0.498717 0.205214 0.190976
14956 6 0.432622 0.17978 0.210019
17533 2 0.379929 0.204157 0.195317
17539 5 0.39729 0.210439 0.186951
17850 7 0.368542 0.237947 0.233907
14912 5 0.454582 0.149876 0.191427
14991 5 0.457021 0.209905 0.194319
14997 7 0.371616 0.176554 0.224303
17468 5 0.397927 0.145513 0.188965
15261 9 0.475294 0.161529 0.246176
15274 9 0.49311 0.157178 0.209837
14905 7 0.392581 0.129478 0.244118
14985 4 0.485216 0.239899 0.198225
14979 1 0.427309 0.241005 0.18998
14925 1 0.432393 0.18041 0.188987
17461 2 0.379835 0.153791 0.196443
14947 3 0.464292 0.149262 0.246273
14913 5 0.495959 0.149063 0.190879
17536 5 0.377611 0.218318 0.204828
14909 2 0.480316 0.214379 0.198531
12407 7 0.478342 0.137938 0.221162
17467 3 0.380627 0.142963 0.207817
17618 7 0.300118 0.245231 0.232637
15245 9 0.437051 -0.00312486 0.154075
25472 9 0.0669866 0.0598234 0.25069
25178 3 0.0261183 0.0587332 0.306516
25245 3 0.0323937 0.109931 0.304691
25251 5 0.0137229 0.0482995 0.287594
25246 4 0.0334998 0.0833245 0.289725
25243 2 0.0333683 0.108797 0.292236
25224 1 0.0856986 0.0829677 0.288979
25179 5 0.05654 0.0506744 0.292805
25173 2 0.031705 0.0586354 0.294169
25170 1 0.0840597 0.0235267 0.290948
25232 5 0.0808751 0.0812089 0.267221
25230 5 0.0796736 0.0230831 0.271071
22671 1 0.108963 0.0549666 0.268178
25171 1 0.0144577 0.0544898 0.265679
25229 5 0.0409449 0.0239031 0.26372
25294 1 0.00877012 0.114438 0.265154
25306 5 0.0405245 0.084154 0.26424
25226 2 0.063379 0.0888569 0.259653
25225 2 0.0647371 0.0181966 0.261232
25496 9 0.0106675 0.0636847 0.307266
25288 6 0.0941299 0.0865947 0.308359
25497 9 0.0304191 0.0948144 0.30737
22619 1 0.113001 0.117499 0.265898
25300 4 0.0657381 0.114532 0.258758
25248 5 0.057319 0.115468 0.289678
22699 5 0.1175 0.11375 0.285428
22624 5 0.117269 0.0557632 0.287689
25183 7 0.110524 0.0305758 0.310318
25218 6 0.0951403 0.0263861 0.311417
25257 7 0.107556 0.0943088 0.309772
1930 7 0.000300226 0.0201083 0.310277
25256 7 0.0999363 0.0713115 0.309102
25247 5 0.0112403 0.117103 0.288394
25227 3 0.0755041 0.0294358 0.251555
22622 3 0.132413 0.0555661 0.307343
22623 4 0.135844 0.0223132 0.295612
22681 5 0.140027 0.027492 0.263138
22620 2 0.134897 0.0479305 0.295332
19999 4 0.225199 0.0466087 0.300485
19993 2 0.233626 0.0608529 0.291777
20068 2 0.234871 0.110632 0.294704
20071 4 0.233786 0.0853417 0.294667
22625 5 0.157671 0.0568291 0.292216
22627 5 0.157132 0.113401 0.289887
22618 1 0.181145 0.0864259 0.286886
20076 5 0.216941 0.0592883 0.282405
22600 1 0.188238 0.0251216 0.287251
22609 5 0.179092 0.0243201 0.268305
22678 5 0.174962 0.0934858 0.267897
19990 1 0.215499 0.053712 0.264941
22677 5 0.13686 0.0835364 0.262693
20129 5 0.242395 0.0876261 0.263668
20053 5 0.239733 0.0229192 0.261216
22602 2 0.163149 0.0321036 0.259385
22673 2 0.160523 0.0823124 0.259249
22676 4 0.165579 0.0574102 0.257974
19998 3 0.187086 0.018191 0.305437
19992 8 0.21758 0.0238138 0.30825
20119 1 0.212217 0.11479 0.265631
20072 5 0.215149 0.11732 0.287403
22943 9 0.146124 0.0593319 0.310719
22626 3 0.128121 0.115647 0.304363
22621 2 0.13447 0.122768 0.292898
20391 9 0.243153 0.120704 0.310128
20070 3 0.23036 0.119642 0.305968
20409 9 0.179766 0.00286043 0.3059
24597 6 0.0646352 -0.000155806 0.408769
20000 5 0.256939 0.0522948 0.288614
17448 5 0.360433 0.115294 0.290197
17440 8 0.319332 0.0847541 0.30946
17446 3 0.288652 0.0847079 0.306614
17442 5 0.328837 0.0618542 0.302089
17447 4 0.325192 0.107408 0.300173
17443 4 0.337423 0.0241058 0.295131
17439 2 0.336958 0.0488918 0.292627
20048 1 0.288273 0.0859339 0.2877
19989 1 0.283281 0.024583 0.287529
17445 5 0.359749 0.059777 0.289636
17444 5 0.31873 0.052075 0.284582
20057 5 0.281947 0.0832965 0.267196
17495 1 0.312067 0.0551025 0.267036
17506 5 0.341554 0.0275638 0.265027
20054 5 0.280228 0.0224015 0.267226
17438 1 0.318614 0.117698 0.263845
17501 5 0.340129 0.0848501 0.260096
17421 2 0.364452 0.0278203 0.260387
20050 2 0.265492 0.0905658 0.259082
20049 2 0.263486 0.0159214 0.258722
17497 2 0.362903 0.0769278 0.257029
20040 6 0.280769 0.0227359 0.30856
17500 4 0.36734 0.0520447 0.256887
20073 5 0.257639 0.117847 0.290645
20124 4 0.265975 0.115171 0.256648
17524 5 0.32271 0.119179 0.281755
17441 2 0.337108 0.122005 0.291712
20005 7 0.26448 0.0250039 0.310697
20004 7 0.287956 0.0254916 0.315446
17857 9 0.277225 0.09144 0.311628
17427 4 0.360679 0.0115709 0.251091
17380 7 0.400696 0.00614198 0.309128
17502 5 0.379386 0.0873581 0.264831
17428 5 0.380643 0.0236298 0.268864
17437 1 0.383262 0.0867584 0.285916
14822 3 0.42282 0.0524819 0.304393
14891 4 0.43114 0.0882019 0.295445
14817 2 0.433358 0.0621901 0.294339
14887 2 0.433818 0.111461 0.290315
14823 5 0.457362 0.0581279 0.290507
17418 1 0.3873 0.0216175 0.288229
14893 5 0.457617 0.119131 0.287359
14897 5 0.417588 0.0562633 0.285288
14892 5 0.416806 0.11568 0.281256
14866 1 0.487319 0.0859341 0.287517
14814 1 0.481818 0.0244544 0.285874
14873 5 0.477228 0.0226682 0.266172
14876 5 0.482067 0.0827115 0.26639
14815 1 0.415597 0.0545967 0.265699
14943 1 0.410528 0.114629 0.26437
14954 5 0.442632 0.0822857 0.26323
17412 6 0.391957 0.019777 0.308847
14869 2 0.464389 0.0899759 0.258724
14872 5 0.436358 0.0142476 0.263833
14867 2 0.459053 0.0136109 0.258359
14948 4 0.464196 0.114703 0.257473
14860 6 0.491637 0.0927161 0.307032
17379 7 0.403343 0.0320983 0.309634
15286 9 0.429638 0.0594647 0.311035
19367 7 0.335589 0.00601805 0.483147
14870 5 0.45756 0.0289891 0.248932
25255 7 0.102095 0.157309 0.309452
25296 2 0.0614846 0.139618 0.260085
25241 1 0.082961 0.146255 0.287756
25249 3 0.0253648 0.175784 0.301636
25360 6 0.0929008 0.211072 0.305602
25320 4 0.0333705 0.209853 0.290326
25317 2 0.0320359 0.235419 0.290686
25295 1 0.086174 0.208588 0.28486
25250 5 0.0579417 0.177364 0.289318
25244 2 0.0333495 0.184719 0.290683
25325 5 0.0163239 0.178443 0.282265
25302 5 0.0808326 0.147411 0.266987
25305 5 0.0799467 0.20793 0.266705
22742 1 0.10942 0.176092 0.266019
25301 5 0.0386383 0.145959 0.26527
25242 1 0.0121906 0.177656 0.2629
25376 5 0.0386664 0.212656 0.262448
25298 2 0.0630344 0.214659 0.258261
25289 6 0.0918259 0.145046 0.308082
25366 1 0.0101817 0.23905 0.263044
25498 9 0.0198928 0.187366 0.306194
25371 4 0.0671487 0.238881 0.255243
22690 1 0.113412 0.239785 0.26427
22773 5 0.117108 0.238939 0.283828
25322 5 0.055128 0.24297 0.286426
22695 5 0.118336 0.180362 0.285896
25330 7 0.100651 0.225254 0.305735
25499 9 0.0265165 0.230912 0.307159
25321 5 0.0120694 0.24455 0.284077
25319 3 0.0318295 0.242951 0.302434
22944 9 0.118767 0.127001 0.307903
25331 7 0.104104 0.200652 0.304599
22697 3 0.12658 0.24236 0.303104
22693 3 0.127287 0.176989 0.305562
22945 9 0.136479 0.187299 0.309198
22694 4 0.133699 0.147726 0.291978
22691 2 0.135118 0.172706 0.293827
22748 4 0.161633 0.175082 0.258746
22674 2 0.163144 0.150106 0.260287
22754 5 0.140677 0.143414 0.264775
20202 5 0.240014 0.20967 0.263316
22672 1 0.187041 0.147887 0.287909
20142 4 0.234538 0.209278 0.290292
20147 5 0.218117 0.174392 0.284872
22696 5 0.157637 0.181097 0.290799
20074 3 0.227721 0.182806 0.304789
20069 2 0.234523 0.185074 0.292685
22689 1 0.182867 0.211639 0.288374
20392 9 0.238166 0.173441 0.308736
20139 2 0.236072 0.234963 0.292111
20067 1 0.216805 0.178142 0.264694
22680 5 0.184379 0.143734 0.26591
22750 5 0.182602 0.207619 0.266996
22749 5 0.13951 0.208291 0.263672
20125 5 0.239708 0.149557 0.262063
22744 2 0.162195 0.201002 0.260224
22737 6 0.191785 0.216326 0.308101
22736 6 0.193328 0.150183 0.307522
22698 5 0.157875 0.238233 0.289819
20190 1 0.206967 0.239474 0.265606
20143 5 0.216745 0.243952 0.285195
22704 7 0.204334 0.137727 0.308187
20393 9 0.243023 0.227731 0.308522
20141 3 0.233611 0.238373 0.304434
22705 7 0.203713 0.163329 0.307049
22692 2 0.134704 0.246337 0.291697
22702 7 0.206449 0.225155 0.308728
22703 7 0.186602 0.213699 0.315234
22747 5 0.16086 0.215806 0.250377
17572 4 0.37078 0.180976 0.258294
20126 5 0.281293 0.146547 0.266875
20075 5 0.257635 0.176956 0.289853
20066 1 0.283334 0.146594 0.286968
17516 2 0.336812 0.172567 0.294123
17518 3 0.334537 0.180883 0.30589
20114 6 0.295354 0.206297 0.308328
17519 4 0.334776 0.147181 0.294236
17521 5 0.359693 0.180131 0.289515
20120 1 0.288026 0.208622 0.288015
17520 5 0.316848 0.181091 0.287968
17595 5 0.318091 0.241735 0.284129
17567 1 0.311398 0.178302 0.266252
20128 5 0.282694 0.206973 0.266298
17577 5 0.341679 0.153497 0.262048
17573 5 0.341573 0.208029 0.262969
17498 2 0.365758 0.156173 0.259317
20121 2 0.262537 0.139856 0.259245
17569 2 0.363849 0.206466 0.25786
20122 2 0.263151 0.215308 0.259379
20196 4 0.266066 0.241199 0.256121
20113 6 0.292015 0.140816 0.306135
17523 5 0.359246 0.24102 0.288489
17515 1 0.315686 0.240129 0.265147
17839 9 0.332029 0.167849 0.310431
17840 9 0.322974 0.233598 0.30497
20144 5 0.25916 0.24179 0.288453
17522 3 0.332741 0.24517 0.303885
17529 7 0.366721 0.202635 0.308867
17530 7 0.362155 0.225407 0.304957
20079 7 0.308298 0.196308 0.308779
20081 7 0.306199 0.132594 0.30478
17561 6 0.374403 0.215421 0.306572
11733 7 0.492065 0.119058 0.398526
14890 5 0.427958 0.127347 0.299057
15020 4 0.464829 0.243281 0.259721
17505 5 0.382135 0.146886 0.267194
17574 5 0.381981 0.215523 0.265356
17514 1 0.383067 0.210766 0.286958
14945 2 0.462567 0.14029 0.258024
14886 1 0.418622 0.180161 0.263152
14894 3 0.391861 0.149006 0.305715
14972 5 0.419214 0.182292 0.281405
14896 5 0.457805 0.18012 0.287088
14888 8 0.423461 0.14874 0.307978
12342 3 0.491779 0.209467 0.306984
14895 4 0.430158 0.171248 0.299529
14964 2 0.434255 0.23611 0.293692
14967 4 0.432803 0.210537 0.294757
14889 2 0.435402 0.186645 0.290852
17496 1 0.390032 0.148287 0.286807
14944 1 0.488618 0.212076 0.286774
14885 1 0.482892 0.150226 0.286133
14953 5 0.482915 0.209511 0.264985
14936 6 0.482753 0.161631 0.305838
14950 5 0.479521 0.14896 0.265727
15025 5 0.441857 0.21022 0.261861
14949 5 0.439377 0.148373 0.261158
14946 2 0.464315 0.218463 0.258046
15015 1 0.410066 0.243139 0.265228
14969 5 0.458791 0.239216 0.290399
14968 5 0.416412 0.243759 0.285551
12753 9 0.480722 0.209701 0.313229
14901 7 0.466916 0.163245 0.30679
14966 3 0.433348 0.247323 0.305129
14900 7 0.488074 0.176434 0.305497
25184 7 0.0951949 0.0263005 0.319519
24544 6 0.0794808 0.0322862 0.335797
24654 7 0.106766 0.0879017 0.332801
24655 7 0.0874561 0.0797625 0.326236
24614 6 0.094234 0.0776609 0.333645
24820 9 0.0331504 0.056217 0.333825
24550 1 0.0884041 0.0846089 0.354206
24571 2 0.036312 0.0569648 0.350716
24576 3 0.0329595 0.0453703 0.339383
24577 5 0.0583777 0.0485448 0.354889
24639 2 0.0341546 0.107131 0.350334
24643 4 0.0362127 0.0823427 0.348595
24644 5 0.0177128 0.111807 0.359283
24645 5 0.0579503 0.114087 0.353123
24649 5 0.0178475 0.0516599 0.358768
24568 1 0.0844727 0.0212658 0.354991
22022 5 0.118796 0.0580786 0.356449
22097 5 0.120847 0.117003 0.356196
24582 7 0.0651541 0.038742 0.337546
24581 7 0.0853786 0.0456263 0.33208
1825 7 0.00420198 0.0327374 0.335681
25185 7 0.0588447 0.00138584 0.327259
24642 5 0.0269565 0.121771 0.341037
22267 9 0.121005 0.0577516 0.33652
22266 9 0.127843 0.00991861 0.336402
22020 3 0.133078 0.0488716 0.338317
22024 3 0.133192 0.109193 0.337131
22633 7 0.175543 0.0429502 0.317449
22665 6 0.168909 0.0562936 0.320362
22634 7 0.159475 0.0503626 0.3263
22032 7 0.207393 0.0138757 0.336563
22021 4 0.137879 0.0222344 0.353067
20065 6 0.238255 0.0279959 0.319769
22631 7 0.18664 0.0774533 0.329722
22632 7 0.173582 0.0947002 0.334758
19714 9 0.234526 0.074265 0.336285
22666 6 0.188301 0.0888739 0.335162
19468 3 0.231369 0.109752 0.336896
19398 3 0.23459 0.0597087 0.338779
19466 2 0.238378 0.109956 0.349214
19469 4 0.23845 0.0858914 0.353288
19393 2 0.238823 0.0601961 0.351567
19474 5 0.220306 0.049948 0.357646
22016 1 0.18735 0.0848527 0.355749
22018 2 0.13816 0.0472334 0.350652
22023 5 0.161392 0.0553265 0.353411
22025 5 0.162336 0.113859 0.352387
21925 1 0.19019 0.0225255 0.35635
21991 6 0.19775 0.0263791 0.335616
22031 7 0.209257 0.0377568 0.336659
20416 7 0.236882 0.0410633 0.324993
19470 5 0.219943 0.121648 0.35548
20415 7 0.241423 0.0142804 0.325031
22268 9 0.135235 0.119961 0.331256
22019 2 0.139224 0.12089 0.348026
19715 9 0.218952 0.0998169 0.336239
17455 7 0.356371 0.0209341 0.317444
17454 7 0.33917 0.0347613 0.312327
20039 6 0.279282 0.0280961 0.334723
17513 6 0.340888 0.0832743 0.320909
17864 7 0.343303 0.0663623 0.323237
17863 7 0.338044 0.0921374 0.327808
19365 6 0.29906 0.086074 0.335406
16842 3 0.332272 0.0522908 0.339223