ITEM: TIMESTEP
688000
ITEM: NUMBER OF ATOMS
25520
ITEM: BOX BOUNDS pp pp pp
-3.8208285012676108e-01 6.0080626440129286e+01
-1.9376573212020041e+00 5.9107942595200733e+01
-1.2630261113003099e+01 1.1190599351901555e+02
ITEM: ATOMS id type xs ys zs
25182 6 0.0842569 0.0217323 0.153708
25252 6 0.100044 0.0897985 0.150916
25214 3 0.0401576 0.0479949 0.154233
25287 5 0.0269315 0.0520945 0.173856
25283 5 0.0659575 0.114035 0.171592
25282 5 0.0262314 0.114282 0.176847
25281 4 0.0401058 0.0850466 0.163576
25277 2 0.0420155 0.108613 0.16778
25215 5 0.0692456 0.055958 0.168582
25209 2 0.0447036 0.0590241 0.165556
25188 1 0.0979151 0.0856079 0.171231
25458 9 0.0384409 0.0602923 0.149438
25206 1 0.0937691 0.0216487 0.173522
25293 7 0.0993165 0.092128 0.142913
25220 7 0.0704549 0.0143569 0.156791
25219 7 0.0800831 0.0368165 0.154278
25292 7 0.109541 0.0771673 0.150408
22906 9 0.128699 0.106825 0.153825
22735 5 0.126631 0.117786 0.171833
22660 5 0.126215 0.0560505 0.173901
22905 9 0.142166 0.0426071 0.149269
22662 3 0.142901 0.113838 0.154131
22658 3 0.136535 0.0533341 0.154321
22656 2 0.144232 0.0480509 0.166165
20112 5 0.226651 0.0535173 0.173382
22663 5 0.168691 0.12442 0.169629
22654 1 0.193054 0.0860112 0.171314
22661 5 0.167154 0.0571512 0.168511
22659 4 0.14577 0.0223389 0.166911
22563 1 0.198369 0.0238293 0.173356
22629 6 0.202931 0.0223797 0.153475
22630 6 0.190491 0.100275 0.151735
22667 7 0.192876 0.103011 0.144345
22668 7 0.177727 0.10953 0.153188
20108 5 0.224979 0.120048 0.171838
20106 3 0.243647 0.117141 0.153765
22670 7 0.199632 0.0124259 0.148191
22669 7 0.215341 0.0306518 0.149821
20031 2 0.244724 0.0599934 0.165457
20036 3 0.243886 0.050478 0.153507
20104 2 0.244531 0.109937 0.165588
20352 9 0.253709 0.0600579 0.14919
20107 4 0.240291 0.0848454 0.165283
22518 7 0.251457 0.079379 0.133961
22482 6 0.259264 0.0815542 0.140255
22517 7 0.250325 0.0924445 0.143805
20118 7 0.314692 0.0696778 0.152081
20117 7 0.292411 0.0786212 0.148364
20077 6 0.305199 0.082614 0.153225
17480 3 0.339318 0.0557992 0.157212
17799 9 0.345861 0.0710391 0.156603
17478 2 0.34377 0.0457558 0.168482
20109 5 0.266289 0.118587 0.169834
17482 5 0.326288 0.053345 0.176709
20037 5 0.268325 0.0576442 0.170167
20011 1 0.296678 0.0841196 0.17403
20028 1 0.292924 0.0216957 0.172588
17481 4 0.341549 0.0205675 0.168254
17484 3 0.342058 0.109058 0.15594
20003 6 0.277127 0.0177834 0.153144
20042 7 0.265724 0.0287877 0.151687
17560 5 0.32546 0.11579 0.174505
20041 7 0.268156 0.00507018 0.155365
17483 5 0.367275 0.0529502 0.171496
17485 5 0.366766 0.116852 0.171529
17800 9 0.327047 0.107843 0.154521
17479 2 0.344911 0.123075 0.166871
14848 1 0.49415 0.0221585 0.176832
17490 7 0.380193 0.078139 0.149399
17489 7 0.3709 0.094577 0.158149
17451 6 0.38476 0.0883158 0.155213
14856 3 0.440237 0.0464726 0.161016
15246 9 0.453219 0.0365371 0.159636
14929 4 0.443773 0.0856473 0.168727
14926 2 0.446597 0.110885 0.170381
14851 2 0.445341 0.0612528 0.171044
14931 5 0.4692 0.113092 0.1748
14857 5 0.4695 0.0554279 0.173522
17476 1 0.391926 0.0849492 0.175468
14934 5 0.428431 0.0562927 0.179873
14930 5 0.426505 0.118158 0.176927
17384 1 0.397356 0.0232347 0.175155
17450 6 0.400434 0.0232094 0.155549
17492 7 0.403914 0.0175961 0.148117
17491 7 0.416201 0.0291432 0.157212
14826 6 0.481848 0.0191422 0.156762
14861 7 0.479215 0.0121358 0.149731
14928 3 0.442758 0.122149 0.158918
14832 1 0.499401 0.0828152 0.178261
15247 9 0.45547 0.118273 0.15427
14862 7 0.47267 0.00920888 0.161598
25280 5 0.0357458 0.125562 0.15957
25291 7 0.0914276 0.171744 0.148119
25290 7 0.106847 0.152711 0.149352
2033 7 0.0413581 0.13212 0.135457
25253 6 0.0937439 0.158154 0.15245
2032 7 0.0351108 0.159516 0.133439
1995 6 0.0296369 0.144851 0.137901
25275 1 0.0908775 0.148829 0.172678
25278 8 0.0272102 0.150317 0.152897
22957 9 0.0900629 0.235587 0.155091
22732 3 0.0968881 0.219988 0.156765
25285 4 0.0384083 0.173149 0.160117
25359 5 0.027753 0.178461 0.17834
25356 5 0.0658497 0.245166 0.173852
25354 4 0.0391365 0.21261 0.168128
25351 2 0.0434699 0.237844 0.170157
25286 5 0.0682408 0.183481 0.171815
25279 2 0.0440985 0.187442 0.169559
25259 1 0.0957929 0.214577 0.175295
25355 5 0.0250698 0.244474 0.177893
25394 6 0.0709128 0.191982 0.144645
25432 7 0.0598207 0.18638 0.149814
25433 7 0.0777722 0.205144 0.147346
22726 8 0.126403 0.215699 0.151591
2103 7 0.00212669 0.227075 0.155694
22730 5 0.124766 0.180338 0.176431
22657 2 0.146108 0.125703 0.164907
22740 7 0.212088 0.133008 0.151693
22741 7 0.215287 0.158388 0.150273
1962 7 0.122403 0.209279 0.131439
1963 7 0.146762 0.220878 0.133624
1927 6 0.12936 0.221947 0.136479
22700 6 0.203652 0.14645 0.150086
22636 1 0.196345 0.150127 0.170941
22729 4 0.143369 0.151432 0.163068
22733 4 0.136756 0.237466 0.160496
20189 7 0.177858 0.237821 0.158024
20148 6 0.191713 0.229824 0.155596
22728 5 0.136199 0.193265 0.158668
22725 2 0.141785 0.176231 0.166824
20178 5 0.225893 0.240081 0.177223
20183 5 0.224736 0.178818 0.172508
22723 1 0.190101 0.213901 0.173679
22731 5 0.164462 0.184129 0.170331
22807 5 0.127542 0.245206 0.178936
20188 7 0.203289 0.240566 0.157099
22734 5 0.166284 0.246221 0.17312
20177 4 0.242769 0.21311 0.163888
20110 3 0.238599 0.176059 0.154005
20105 2 0.243356 0.186576 0.165351
20173 2 0.243893 0.236521 0.168383
20354 9 0.230501 0.186804 0.149391
20353 9 0.241129 0.132574 0.152926
17555 4 0.341188 0.147763 0.164042
20102 1 0.291994 0.147967 0.171516
17554 3 0.340321 0.185649 0.155007
17801 9 0.338711 0.200697 0.156313
17558 3 0.334063 0.235741 0.157725
17552 2 0.344224 0.172996 0.166001
17556 5 0.324995 0.179777 0.173435
20111 5 0.266355 0.179707 0.16934
20084 1 0.295917 0.209519 0.172576
20179 5 0.267538 0.242454 0.171521
17631 5 0.326121 0.24236 0.17635
17559 5 0.367545 0.238786 0.171177
17557 5 0.366979 0.17828 0.169983
17802 9 0.340227 0.242882 0.151002
17553 2 0.343966 0.247657 0.168062
17563 7 0.379971 0.196588 0.15163
17566 7 0.413473 0.148212 0.15387
14924 1 0.496429 0.142042 0.175344
17565 7 0.399623 0.134562 0.147377
17564 7 0.396706 0.213258 0.146287
14938 7 0.467318 0.208008 0.143612
14937 7 0.447035 0.194161 0.147301
17525 6 0.398477 0.145659 0.153266
17459 1 0.396854 0.145631 0.174426
17526 6 0.39267 0.207673 0.152917
14899 6 0.452422 0.204296 0.141924
15248 9 0.445878 0.152277 0.156939
15002 3 0.44098 0.23585 0.155801
14932 3 0.443451 0.167766 0.157259
15000 2 0.446321 0.229413 0.167244
15003 4 0.449057 0.204806 0.166881
14927 2 0.447073 0.179288 0.167696
15005 5 0.469403 0.23857 0.169818
14933 5 0.470105 0.174339 0.171888
15004 5 0.428333 0.234789 0.17564
17550 1 0.391352 0.206767 0.174141
15008 5 0.428102 0.174272 0.175549
15249 9 0.442836 0.223385 0.150169
14907 1 0.497967 0.206449 0.174462
25471 9 0.0630671 0.0153404 0.244775
25198 5 0.0927097 0.0812927 0.192888
25195 5 0.0914566 0.0244861 0.19236
25268 5 0.0526683 0.0810068 0.193263
25258 1 0.0217075 0.116854 0.195466
25207 1 0.0275206 0.0542743 0.195198
25191 2 0.0729479 0.0891583 0.198695
25263 4 0.0727613 0.114882 0.200274
25197 4 0.0707422 0.0768053 0.209387
25192 5 0.0715331 0.0312442 0.210172
25196 3 0.0311526 0.0537083 0.21464
25190 8 0.0614313 0.0541628 0.21754
25510 9 0.0186077 0.0442397 0.217786
25517 7 0.0763497 0.0714376 0.235039
25240 6 0.0715853 0.0551879 0.231759
22685 7 0.076039 0.0996649 0.220919
25506 7 0.0662496 0.0460733 0.238595
22649 6 0.0799258 0.112665 0.22519
25194 5 0.0512232 0.0129003 0.196386
25189 2 0.0746655 0.0159968 0.200808
25308 6 0.0210648 0.118979 0.215356
25472 9 0.0532854 0.100113 0.243265
25272 7 0.0287753 0.124204 0.221786
25201 6 0.0119936 0.0498217 0.244943
25271 7 0.00813173 0.108949 0.218149
22684 7 0.067548 0.116301 0.230063
22635 1 0.120677 0.0546903 0.193237
22760 7 0.0974961 0.121413 0.239331
22958 9 0.114411 0.131425 0.214892
25205 7 0.00689579 0.00111459 0.219025
25203 7 0.0721326 0.010494 0.224638
22650 7 0.106171 0.0372347 0.214427
25236 7 0.027521 0.0471181 0.24318
22683 6 0.1189 0.0467918 0.212791
22613 7 0.119548 0.00764692 0.242775
22686 7 0.0938062 0.082979 0.24725
12257 7 0.492165 0.00523223 0.241871
25270 6 0.0424871 0.126448 0.236784
25231 3 0.0614726 0.0894388 0.248203
22651 7 0.122914 0.0519503 0.220181
25309 7 0.0307694 0.116887 0.239491
22648 6 0.106449 0.0736527 0.249035
25235 6 0.0756529 0.00103721 0.230904
12399 6 0.49202 0.176393 0.246712
22655 1 0.121605 0.116197 0.192341
20096 6 0.199998 0.0544117 0.248266
22643 5 0.188825 0.0854258 0.190665
20062 7 0.135527 0.0651808 0.240828
20023 6 0.139219 0.0654126 0.232934
20134 7 0.197457 0.0606148 0.240922
20061 7 0.155297 0.0623239 0.233587
22572 5 0.190818 0.0258661 0.191932
20083 1 0.218721 0.118109 0.193241
20029 1 0.22425 0.0567628 0.195078
22642 5 0.149145 0.0762244 0.192696
20063 7 0.179299 0.0509662 0.220675
22637 2 0.171322 0.0786719 0.198244
22641 4 0.174683 0.0551352 0.203145
22565 2 0.174764 0.0293196 0.201131
22640 5 0.167403 0.0958797 0.206469
20060 6 0.230571 0.0489101 0.214615
20022 6 0.181071 0.0638013 0.225058
20064 7 0.17322 0.0744551 0.220641
22647 5 0.151733 0.0226848 0.197907
22571 3 0.181421 0.0173182 0.211594
22638 8 0.155095 0.116185 0.2145
22644 3 0.12483 0.12072 0.210696
22965 7 0.151908 0.0996299 0.234092
22577 7 0.142004 0.0327165 0.234008
20025 7 0.241349 0.0364832 0.213019
22688 6 0.159312 0.112436 0.229902
22612 6 0.147848 0.0185367 0.236791
22576 7 0.161173 0.0148288 0.232806
20024 7 0.222183 0.0423985 0.220298
22931 9 0.195779 0.00916436 0.210222
20130 6 0.221854 0.0877091 0.227893
17471 6 0.20183 0.0145611 0.232524
17510 7 0.190665 0.00987755 0.227279
17509 7 0.195698 0.0282608 0.235457
20100 7 0.235587 0.0797318 0.226333
20101 7 0.210082 0.0780353 0.225086
20098 7 0.216408 0.109192 0.219761
20133 7 0.212612 0.109664 0.241007
20365 9 0.244809 0.0339102 0.245945
22918 9 0.158382 0.0171227 0.24995
17549 7 0.247807 0.109217 0.231188
20095 5 0.2482 0.0834788 0.196631
22614 7 0.0939283 0.00221071 0.242023
22652 7 0.147575 0.0104386 0.212128
22919 9 0.174248 0.0905285 0.248572
22675 3 0.159686 0.0841517 0.249691
20097 6 0.207873 0.119419 0.24723
20016 5 0.246724 0.0241562 0.197996
20051 3 0.259668 0.0299865 0.249268
20366 9 0.261935 0.0930384 0.2459
17456 7 0.287909 0.0664584 0.247602
20020 5 0.288532 0.0803731 0.195773
20017 5 0.285887 0.0202531 0.192198
17477 1 0.321581 0.115812 0.195365
17458 1 0.316073 0.052026 0.196615
17464 5 0.346285 0.0837933 0.197921
20013 2 0.270206 0.0901409 0.202016
20379 9 0.265566 0.0704971 0.215676
20089 4 0.272158 0.116017 0.202304
20019 3 0.273453 0.083578 0.214049
20378 9 0.278144 0.0139643 0.217147
17466 6 0.309594 0.0557105 0.217162
17493 7 0.301133 0.0681846 0.219729
17494 7 0.298172 0.0448427 0.216288
14960 7 0.335144 0.0802207 0.226218
14918 6 0.325952 0.0863251 0.231432
14959 7 0.316457 0.0741167 0.233432
17469 5 0.347918 0.0215345 0.199653
20014 3 0.275501 0.024448 0.211445
20012 2 0.269163 0.0137972 0.200827
17503 6 0.297155 0.0551263 0.244739
17499 3 0.360084 0.0861774 0.244567
17457 7 0.287059 0.0419404 0.24417
17813 9 0.3447 0.0893522 0.24156
17473 7 0.317348 0.110147 0.221137
17472 7 0.298389 0.117089 0.213037
14846 7 0.36534 0.0537311 0.236715
17508 6 0.313269 0.12137 0.215428
17460 2 0.36865 0.0780686 0.202687
17386 2 0.371576 0.028113 0.203002
17578 6 0.262992 0.109582 0.233045
17548 7 0.269075 0.102964 0.226897
17463 4 0.373145 0.0526547 0.203774
14878 6 0.370373 0.0515406 0.229254
12389 7 0.498739 0.189512 0.215688
17826 9 0.373624 0.102944 0.214149
17391 3 0.374541 0.0186853 0.214403
17825 9 0.371826 0.0285596 0.219946
17470 6 0.280622 0.0048047 0.231794
17582 7 0.312836 0.116019 0.240537
17511 7 0.270205 0.0100265 0.236554
14847 7 0.363478 0.0639187 0.225146
17583 7 0.287579 0.112585 0.240638
17544 6 0.299745 0.117563 0.245362
17584 6 0.373755 0.242756 0.231752
17462 3 0.370847 0.0869238 0.214651
15272 9 0.4828 0.0110552 0.2196
14840 5 0.48833 0.0824524 0.198139
17465 5 0.388203 0.0846166 0.195162
14906 1 0.418063 0.116112 0.19773
17392 5 0.389777 0.0219473 0.194871
14849 1 0.423628 0.0538775 0.198475
14917 5 0.448151 0.088508 0.200673
14837 5 0.448462 0.0242418 0.201024
14911 4 0.475768 0.117601 0.203937
14834 2 0.470694 0.0930584 0.204808
14839 3 0.472241 0.0809326 0.215946
14955 6 0.414274 0.0635565 0.218028
15273 9 0.479297 0.0904117 0.221363
14922 7 0.399848 0.0591373 0.220337
14923 7 0.425982 0.0572405 0.222824
15308 7 0.459084 0.0595305 0.22559
14884 6 0.452331 0.0471507 0.230592
15297 7 0.460111 0.0311019 0.229328
15303 9 0.401908 0.0566862 0.240941
14868 8 0.443049 0.0538305 0.24515
14835 3 0.482206 0.0232198 0.214441
14874 3 0.4123 0.05726 0.247623
14833 2 0.470442 0.0146642 0.2039
14838 5 0.487589 0.0186075 0.195453
14941 7 0.414103 0.101313 0.219172
12366 6 0.476249 0.11554 0.232831
12408 7 0.470548 0.120918 0.239239
14905 7 0.384073 0.106338 0.242779
14951 6 0.394571 0.116887 0.246316
14914 6 0.413715 0.117641 0.219179
14979 1 0.419826 0.236657 0.194248
14985 4 0.475468 0.241177 0.202559
14942 7 0.39848 0.120673 0.220671
25345 7 0.00396035 0.232316 0.217112
25343 6 -0.000196119 0.248657 0.243136
22679 3 0.159276 0.144946 0.249105
22717 6 0.106347 0.125561 0.245409
14925 1 0.42385 0.175782 0.195817
25310 7 0.0473902 0.133833 0.242986
25484 9 0.0791874 0.134565 0.218215
25267 5 0.0894938 0.209794 0.195823
25265 5 0.0884453 0.148528 0.193099
25303 3 0.0114017 0.18337 0.246355
25260 2 0.073268 0.139474 0.201685
25264 5 0.0507795 0.149807 0.199485
25332 1 0.0201639 0.244559 0.19672
25276 1 0.026506 0.178949 0.198472
25342 5 0.0489437 0.208742 0.198927
25337 4 0.0692254 0.244009 0.20384
25261 2 0.0705263 0.218611 0.202955
25266 3 0.0736325 0.211579 0.214946
25262 3 0.0827861 0.14605 0.212646
25485 9 0.0817227 0.197747 0.215388
22720 7 0.102883 0.16773 0.216917
25377 6 0.0204355 0.183247 0.218857
25507 7 0.0598296 0.188172 0.22486
25518 7 0.0562637 0.162274 0.225693
25314 6 0.0607905 0.175524 0.230598
25297 8 0.0413896 0.180975 0.243441
22751 3 0.112197 0.242448 0.244229
22758 7 0.117046 0.179133 0.240757
22718 6 0.104302 0.176273 0.245631
25348 7 0.0160367 0.197855 0.221652
25347 7 0.00608237 0.176704 0.21897
22830 7 0.0729805 0.234735 0.226239
22757 7 0.0907254 0.17736 0.2411
22756 6 0.114703 0.179105 0.216368
22706 1 0.119095 0.180757 0.19523
22825 6 0.117725 0.24631 0.216828
14958 7 0.385835 0.178238 0.239454
22791 6 0.0678437 0.246281 0.230928
22829 7 0.0622471 0.237285 0.236802
22759 7 0.111218 0.140433 0.243814
9776 7 0.470451 0.224224 0.22795
22960 9 0.101193 0.245087 0.237815
20131 6 0.213362 0.119661 0.213004
22719 7 0.124255 0.178095 0.222666
22724 1 0.126885 0.241095 0.1976
20169 7 0.219825 0.195847 0.241943
22954 7 0.153391 0.126209 0.234379
20099 7 0.199295 0.126924 0.214861
20167 7 0.207968 0.222718 0.217189
22646 5 0.192426 0.146869 0.193293
22713 5 0.19148 0.213086 0.196163
20103 1 0.223917 0.178909 0.194414
22716 5 0.149466 0.144624 0.193369
20154 1 0.218411 0.240816 0.195765
22722 7 0.145207 0.170061 0.241913
22645 4 0.167789 0.141215 0.209391
22712 5 0.149744 0.21265 0.198536
22639 2 0.170765 0.152421 0.198978
22708 2 0.172007 0.203087 0.201937
22711 4 0.170678 0.178368 0.200472
22710 3 0.175994 0.205468 0.213768
22932 9 0.180086 0.191891 0.217549
20204 6 0.216543 0.236151 0.216628
20092 3 0.227848 0.179554 0.214211
22721 7 0.150257 0.19265 0.23827
20406 9 0.215024 0.177624 0.220222
22745 8 0.143238 0.245936 0.24242
20166 6 0.182786 0.168964 0.226091
20206 7 0.171492 0.172043 0.231291
22755 6 0.145584 0.179074 0.235254
20205 7 0.176754 0.157671 0.220973
22762 6 0.158985 0.240905 0.229344
20203 6 0.207037 0.184927 0.243879
22966 7 0.156054 0.228017 0.223938
20170 7 0.201736 0.183259 0.236319
20165 6 0.200305 0.248339 0.243788
20208 7 0.214015 0.245394 0.239621
20090 5 0.244627 0.139037 0.194124
20164 5 0.248258 0.206811 0.193357
15262 9 0.464769 0.223852 0.242784
25237 7 0.00543346 0.0459506 0.237995
14844 7 0.400685 -0.00247818 0.216534
20123 3 0.256431 0.150164 0.247782
17815 9 0.338043 0.225738 0.247457
17571 3 0.351922 0.218929 0.248847
17504 3 0.359897 0.148038 0.247613
20367 9 0.2565 0.136183 0.243323
17617 7 0.276591 0.219212 0.22037
17651 6 0.283612 0.22788 0.226342
20368 9 0.265718 0.221261 0.241798
20091 5 0.286289 0.146188 0.190532
20094 5 0.289201 0.205084 0.192022
17531 1 0.316733 0.176035 0.194456
17551 1 0.322475 0.236072 0.195326
17538 5 0.348721 0.203636 0.197168
17543 5 0.347438 0.145374 0.197555
20085 2 0.268316 0.139691 0.198774
20086 8 0.258226 0.178001 0.2166
20087 2 0.269972 0.213066 0.198574
20159 4 0.272659 0.237293 0.20178
20088 5 0.26285 0.157606 0.20687
20093 4 0.268814 0.199855 0.208373
17547 7 0.305592 0.178286 0.221304
17540 3 0.328622 0.235395 0.21531
17579 6 0.316657 0.181085 0.215846
17546 7 0.329518 0.181824 0.220573
20136 6 0.275577 0.182368 0.229602
20413 7 0.279469 0.198808 0.231961
20402 7 0.26826 0.176655 0.236932
17534 8 0.358739 0.238714 0.218334
14996 7 0.357746 0.19574 0.234419
17814 9 0.357546 0.159466 0.242003
20127 3 0.256109 0.211708 0.246139
15026 6 0.36243 0.182911 0.230874
14997 7 0.370349 0.188136 0.224264
17545 6 0.308584 0.24999 0.244754
17461 2 0.369724 0.149576 0.202901
17536 5 0.368981 0.216237 0.21131
17533 2 0.372153 0.199245 0.202461
17827 9 0.360347 0.138102 0.218465
17854 9 0.317453 0.227435 0.220685
17537 4 0.371159 0.17404 0.205847
17618 7 0.280189 0.242862 0.223633
17467 3 0.372506 0.134883 0.213025
17581 7 0.303372 0.244889 0.237851
12328 7 0.449538 0.152201 0.228225
9739 6 0.466703 0.237503 0.231516
14956 6 0.425138 0.189313 0.215515
15031 7 0.424919 0.227584 0.246962
12291 6 0.434209 0.157041 0.23038
14910 3 0.472936 0.149305 0.216121
14915 3 0.471296 0.207947 0.213385
14992 6 0.410303 0.233268 0.24532
12353 7 0.479819 0.186915 0.245897
12406 7 0.496777 0.243248 0.240255
12352 7 0.48448 0.161979 0.244824
14991 5 0.449605 0.212516 0.19695
14913 5 0.491582 0.150291 0.196666
12407 7 0.471491 0.125675 0.227186
14957 7 0.410914 0.165206 0.238894
14952 3 0.460569 0.210112 0.24756
14921 7 0.425491 0.181786 0.22281
14947 3 0.455247 0.151282 0.247839
14916 5 0.492066 0.206851 0.194748
15030 7 0.409943 0.237775 0.238176
15274 9 0.486035 0.157304 0.218067
14912 5 0.449725 0.148196 0.199783
17468 5 0.387468 0.144613 0.194848
12329 7 0.425152 0.14501 0.227464
17850 7 0.371805 0.232141 0.238568
14919 6 0.400976 0.175382 0.243003
14908 2 0.472358 0.14282 0.204121
17539 5 0.389065 0.206596 0.194738
14904 7 0.385277 0.130204 0.245988
14909 2 0.473087 0.215935 0.201624
15261 9 0.440454 0.154685 0.244498
14920 7 0.430919 0.204792 0.216947
15275 9 0.456356 0.202274 0.215112
25378 6 0.0140171 0.245103 0.2172
9777 7 0.451401 0.239793 0.229243
22575 6 0.106577 0.00182882 0.247424
22653 7 0.135432 0.00482575 0.222915
20132 7 0.218252 0.131995 0.246831
2433 1 0.00134977 0.0209159 0.175388
14940 7 0.496187 0.132301 0.147622
25353 3 0.0430947 0.24932 0.158702
20168 7 0.205717 0.247518 0.216758
25382 7 0.0028249 0.251224 0.235587
22920 9 0.173141 0.146951 0.246564
25178 3 0.022408 0.0527189 0.30474
25245 3 0.0176021 0.117822 0.305748
25251 5 0.009136 0.0558615 0.284813
25246 4 0.0250083 0.0874085 0.292832
25243 2 0.0256923 0.112195 0.293759
25224 1 0.0784561 0.0881638 0.287912
25179 5 0.049813 0.0560893 0.290522
25173 2 0.0265019 0.0623026 0.292971
25170 1 0.0768443 0.0257102 0.290103
25232 5 0.0739795 0.0935252 0.267987
25230 5 0.0786737 0.0286085 0.267318
22671 1 0.105077 0.0558001 0.266719
25171 1 0.00805924 0.0535788 0.265286
25229 5 0.0364603 0.022822 0.266361
25306 5 0.0333237 0.0852982 0.264507
25226 2 0.0545038 0.0945884 0.259921
25225 2 0.0597442 0.0180861 0.261567
25496 9 0.0279818 0.0376311 0.305554
25288 6 0.078544 0.0927494 0.30886
22619 1 0.106135 0.122696 0.266605
25300 4 0.0509142 0.120133 0.25984
25248 5 0.0494582 0.120089 0.291068
22699 5 0.107562 0.119976 0.286527
22624 5 0.110521 0.0563562 0.285523
25247 5 0.00760411 0.119869 0.285503
22622 3 0.108878 0.0599128 0.304821
22944 9 0.107231 0.118904 0.30827
25218 6 0.0736226 0.0183055 0.310318
25497 9 0.0217578 0.105398 0.310188
25495 9 0.0111276 0.0039339 0.30826
25294 1 0.00127183 0.116247 0.265002
25257 7 0.0854083 0.0778386 0.308489
25184 7 0.0590583 0.0116919 0.311565
22687 7 0.117996 0.084506 0.252374
25174 3 0.0260269 0.0052311 0.30573
22623 4 0.127007 0.0280049 0.296771
22626 3 0.122285 0.118537 0.306731
22620 2 0.125677 0.0532902 0.29548
22681 5 0.134886 0.0219 0.266448
19999 4 0.219206 0.0477424 0.303167
19993 2 0.226477 0.0636441 0.294296
20068 2 0.227005 0.113949 0.295229
20071 4 0.223687 0.0887503 0.29651
22625 5 0.149663 0.0594678 0.293986
22627 5 0.149988 0.118896 0.291075
22618 1 0.174996 0.0899725 0.289038
20076 5 0.211316 0.0599275 0.2846
22600 1 0.181974 0.0259207 0.293275
22609 5 0.17422 0.0266992 0.274882
22678 5 0.170819 0.0905972 0.269903
19990 1 0.209778 0.0549914 0.268065
22677 5 0.131542 0.090352 0.263985
20129 5 0.233303 0.0862949 0.266282
20053 5 0.231465 0.0236345 0.26472
22602 2 0.158034 0.0313886 0.265413
22673 2 0.154266 0.0811883 0.261849
22676 4 0.158708 0.0561778 0.264381
20119 1 0.203548 0.119176 0.267331
22608 3 0.168749 0.0185092 0.255868
22665 6 0.164998 0.0857416 0.308986
20072 5 0.207895 0.119875 0.287467
19992 8 0.212638 0.0267202 0.312897
19998 3 0.18204 0.0279922 0.312989
22633 7 0.155661 0.0741686 0.305671
20070 3 0.224092 0.124247 0.307003
22545 2 0.128697 0.00265083 0.29419
20000 5 0.249898 0.0570446 0.29077
22634 7 0.155324 0.0982422 0.311056
20073 5 0.250153 0.12119 0.291702
22943 9 0.117218 0.0683832 0.310059
19994 5 0.218198 0.004361 0.304085
17440 8 0.314441 0.0860403 0.308391
17446 3 0.283212 0.0879645 0.308544
17442 5 0.320999 0.0656065 0.299425
17447 4 0.319431 0.109326 0.299825
17443 4 0.330382 0.0267969 0.29412
17439 2 0.328247 0.0510608 0.29027
20048 1 0.282008 0.089527 0.29028
19989 1 0.274 0.0270579 0.28806
17445 5 0.351014 0.0583907 0.286369
17444 5 0.309212 0.0531948 0.282561
20057 5 0.274016 0.0897064 0.270362
17495 1 0.303099 0.0559002 0.265155
17506 5 0.332593 0.0260243 0.264495
20054 5 0.270944 0.0251203 0.268513
17438 1 0.30731 0.118445 0.264991
17501 5 0.33171 0.0837328 0.261049
17421 2 0.356334 0.029946 0.260267
20050 2 0.255313 0.0947022 0.262461
20049 2 0.254864 0.0181007 0.259918
17497 2 0.355889 0.0792747 0.256645
20040 6 0.281061 0.0254208 0.30828
17500 4 0.357992 0.0533158 0.255257
20124 4 0.254578 0.119904 0.261996
17427 4 0.352345 0.0143354 0.250863
17428 5 0.371622 0.0213596 0.269155
17448 5 0.348327 0.11931 0.287667
17502 5 0.370695 0.0882926 0.265905
17838 9 0.326794 0.0103359 0.311576
17369 2 0.327281 0.00184795 0.295353
20056 3 0.261826 0.0834331 0.252107
20004 7 0.294365 0.0179331 0.310313
17437 1 0.373368 0.090642 0.285287
17524 5 0.309114 0.12357 0.283261
14875 4 0.453815 0.0766092 0.252507
14822 3 0.415422 0.0544164 0.305263
14891 4 0.4256 0.0886693 0.29578
14817 2 0.424802 0.0629043 0.29458
14887 2 0.425975 0.112766 0.291798
14823 5 0.448118 0.0534576 0.293288
17418 1 0.379686 0.0242401 0.288533
14893 5 0.449538 0.119474 0.289207
14897 5 0.408523 0.0596889 0.285147
14892 5 0.408523 0.117887 0.283028
14866 1 0.477051 0.0862027 0.290728
14814 1 0.474203 0.0247419 0.291352
14873 5 0.47084 0.0243115 0.271636
14876 5 0.472531 0.0841652 0.269368
14815 1 0.404889 0.0558696 0.266834
14943 1 0.401094 0.118742 0.265945
14954 5 0.430017 0.0939468 0.264526
17412 6 0.382757 0.0203524 0.309639
14869 2 0.453737 0.0925636 0.261479
14872 5 0.430886 0.02515 0.268592
14867 2 0.45265 0.017832 0.263895
14948 4 0.459082 0.117942 0.259165
14860 6 0.483322 0.0863082 0.311379
17379 7 0.392851 0.0340858 0.309714
14870 5 0.450783 0.03266 0.253931
17380 7 0.393077 0.00716172 0.310652
14828 7 0.492723 0.0987724 0.312396
14902 7 0.429132 0.0936862 0.313068
15286 9 0.417767 0.0654489 0.311139
14607 9 0.423777 -0.00445823 0.335433
25299 5 0.0518883 0.158649 0.251308
25296 2 0.0520458 0.145512 0.26138
25241 1 0.073112 0.152405 0.289143
25249 3 0.019453 0.181114 0.303935
25360 6 0.0795602 0.217512 0.305928
25320 4 0.022789 0.215931 0.292921
25317 2 0.0266886 0.240948 0.291664
25295 1 0.07913 0.213636 0.28633
25250 5 0.0487036 0.187287 0.289025
25244 2 0.0243441 0.190778 0.292647
25325 5 0.00923252 0.180827 0.283841
25302 5 0.0698498 0.153362 0.269442
25305 5 0.0720605 0.214194 0.267084
22742 1 0.10235 0.183289 0.266306
25301 5 0.0299199 0.152605 0.266368
25242 1 0.00513742 0.182951 0.264331
25376 5 0.0292223 0.221473 0.262998
25298 2 0.0534483 0.222043 0.259596
25289 6 0.0786266 0.152192 0.309392
25498 9 0.01635 0.192561 0.30914
25371 4 0.0570742 0.245155 0.255057
22690 1 0.106044 0.244192 0.26357
22695 5 0.109087 0.184552 0.28719
22773 5 0.109999 0.24412 0.282823
25499 9 0.0263183 0.239663 0.308641
25331 7 0.0864296 0.231149 0.308094
22697 3 0.113889 0.24257 0.302839
22693 3 0.117841 0.1834 0.30647
25321 5 0.00560882 0.248178 0.286199
25322 5 0.0486207 0.248127 0.287217
25330 7 0.0913019 0.207509 0.30529
22694 4 0.125899 0.151063 0.294108
25254 7 0.0920872 0.160846 0.310477
22691 2 0.127008 0.176346 0.295239
1326 7 0.0035697 0.0989155 0.338671
18766 7 0.277302 0.08815 0.501073
14387 5 0.47213 0.183175 0.441566
22621 2 0.126125 0.126191 0.294446
22748 4 0.157942 0.18277 0.25719
22674 2 0.156161 0.1573 0.260222
22754 5 0.132516 0.153863 0.263764
20202 5 0.230327 0.215673 0.262078
22672 1 0.179518 0.152828 0.28801
20142 4 0.226764 0.213819 0.293329
20147 5 0.208631 0.180057 0.286082
22696 5 0.15051 0.184263 0.292388
20074 3 0.225635 0.182881 0.305657
20069 2 0.226969 0.18875 0.293662
22689 1 0.173754 0.215097 0.289014
20392 9 0.233372 0.194221 0.310044
20139 2 0.227804 0.238502 0.29326
20067 1 0.205832 0.183162 0.264827
22680 5 0.173573 0.150334 0.268429
22750 5 0.172576 0.214437 0.267905
22749 5 0.132348 0.208507 0.264336
20125 5 0.230716 0.153005 0.262788
22744 2 0.1555 0.208056 0.259786
22737 6 0.180971 0.209466 0.309057
22736 6 0.186669 0.15191 0.308719
22698 5 0.148375 0.245796 0.290766
20190 1 0.200302 0.245039 0.265205
20393 9 0.235541 0.235701 0.309945
20143 5 0.206906 0.245227 0.287486
20141 3 0.225941 0.245152 0.305509
22705 7 0.189505 0.167531 0.309408
22704 7 0.200521 0.143411 0.309161
22747 5 0.15186 0.224385 0.25071
20144 5 0.249115 0.247567 0.288946
22945 9 0.127025 0.194648 0.309391
22702 7 0.196809 0.206091 0.309933
20075 5 0.24901 0.178805 0.289451
16794 7 0.265825 0.00363197 0.415457
24572 3 0.0322936 0.00243613 0.341617
17441 2 0.326077 0.127793 0.292054
17572 4 0.357062 0.181539 0.257848
20126 5 0.271091 0.15352 0.266996
20066 1 0.27322 0.151197 0.288456
17516 2 0.327332 0.177934 0.29455
17518 3 0.329481 0.189897 0.305712
20114 6 0.281576 0.211301 0.305315
17519 4 0.325352 0.151964 0.296539
17521 5 0.349533 0.181657 0.288684
20120 1 0.277228 0.213177 0.285255
17520 5 0.307828 0.185413 0.287519
17595 5 0.309508 0.243931 0.284902
17567 1 0.300961 0.180138 0.267134
20128 5 0.270778 0.213638 0.265973
17577 5 0.330623 0.149632 0.260948
17573 5 0.328575 0.208944 0.263911
17498 2 0.354294 0.156419 0.258869
20121 2 0.253234 0.144597 0.259796
17569 2 0.352325 0.206166 0.259558
20122 2 0.253709 0.220531 0.257773
20196 4 0.258147 0.245217 0.257715
20113 6 0.263228 0.153598 0.308235
17523 5 0.349146 0.243772 0.291682
17515 1 0.305717 0.246083 0.26513
17839 9 0.313555 0.196661 0.306664
20079 7 0.291614 0.221771 0.307471
20081 7 0.251594 0.164111 0.306589
17522 3 0.314933 0.244475 0.305026
17529 7 0.355763 0.205994 0.306775
17574 5 0.370794 0.215204 0.266891
17505 5 0.371682 0.145795 0.266369
17561 6 0.367408 0.217385 0.3056
17530 7 0.359464 0.231282 0.303599
17514 1 0.374971 0.213253 0.286919
20082 7 0.255758 0.139813 0.308777
15305 9 0.36916 0.145373 0.312449
14890 5 0.418308 0.128304 0.300456
15020 4 0.454375 0.24368 0.25838
14945 2 0.453105 0.142683 0.259514
14886 1 0.405464 0.182622 0.262487
14894 3 0.379927 0.147949 0.305725
14972 5 0.409256 0.187155 0.27955
14896 5 0.450015 0.181786 0.285951
14888 8 0.410414 0.151894 0.30736
12342 3 0.480142 0.212446 0.307058
14895 4 0.415069 0.172477 0.297326
14964 2 0.426907 0.238441 0.292579
14967 4 0.424725 0.212605 0.292043
14889 2 0.42605 0.188253 0.289059
17496 1 0.38126 0.152758 0.287127
14944 1 0.480859 0.213393 0.287176
14885 1 0.476463 0.150483 0.287104
14953 5 0.473459 0.21507 0.266666
14936 6 0.471883 0.149663 0.308461
14950 5 0.471532 0.153432 0.266358
15025 5 0.43151 0.211671 0.26132
14949 5 0.42977 0.150687 0.262441
14946 2 0.454979 0.218697 0.258662
15015 1 0.401889 0.245038 0.26513
14969 5 0.449426 0.243762 0.288078
14968 5 0.408906 0.247489 0.285536
14901 7 0.483183 0.139207 0.31038
14966 3 0.429462 0.248277 0.30432
25183 7 0.079353 0.0195911 0.317368
25256 7 0.0640858 0.0919404 0.312791
24544 6 0.0829401 0.0341718 0.335514
24654 7 0.106914 0.0913983 0.335571
24655 7 0.0860591 0.0856437 0.328893
24614 6 0.0922753 0.0856895 0.336626
24820 9 0.0364717 0.0339489 0.342081
24550 1 0.0882789 0.08983 0.357169
24571 2 0.0350832 0.0619758 0.351955
24576 3 0.0310322 0.0486356 0.341385
24577 5 0.0597864 0.0603858 0.355212
24639 2 0.0324164 0.111227 0.350697
24643 4 0.0287475 0.0856131 0.348742
24644 5 0.0178815 0.114069 0.360548
24645 5 0.0571202 0.116453 0.352929
24649 5 0.0192357 0.0567104 0.361219
24568 1 0.0864468 0.0274395 0.355694
22022 5 0.118836 0.0636367 0.35774
22097 5 0.118004 0.120057 0.35457
24582 7 0.0917416 0.0475239 0.334904
24581 7 0.0742459 0.0358592 0.329351
25186 7 0.0376381 0.0795377 0.326635
25217 6 0.0375975 0.0844232 0.319444
25185 7 0.0355601 0.0706438 0.31515
1824 7 0.00351727 0.0236501 0.337086
24557 5 0.0832658 0.0286382 0.376099
22266 9 0.141264 0.0198025 0.33703
22267 9 0.149624 0.0634265 0.33615
22024 3 0.133906 0.111766 0.336445
22020 3 0.138425 0.0529581 0.338648
20391 9 0.223694 0.112391 0.311879
20409 9 0.175138 0.03401 0.320442
22032 7 0.20735 0.043371 0.333849
22021 4 0.138001 0.0284665 0.354745
20065 6 0.23725 0.0232612 0.323071
22631 7 0.174387 0.0904232 0.326412
22632 7 0.167073 0.103296 0.336353
19714 9 0.235882 0.076511 0.33539
22666 6 0.176283 0.0895599 0.334268
19468 3 0.235178 0.109528 0.334834
19398 3 0.235571 0.0615642 0.337983
19466 2 0.239656 0.112205 0.347493
19469 4 0.240128 0.0890858 0.351667
19393 2 0.240126 0.0633485 0.350674
19474 5 0.219988 0.054934 0.357208
22016 1 0.186558 0.0900746 0.354011