ITEM: TIMESTEP
193000
ITEM: NUMBER OF ATOMS
25520
ITEM: BOX BOUNDS pp pp pp
-3.6877047132793017e-01 6.0067314061327096e+01
-1.9242166044422473e+00 5.9094501878443431e+01
-1.2602841339472663e+01 1.1187857374547721e+02
ITEM: ATOMS id type xs ys zs
25182 6 0.104506 0.0233222 0.1507
25252 6 0.118556 0.0839667 0.147801
25214 3 0.0480967 0.0465962 0.155372
25287 5 0.0397178 0.0562601 0.173968
25283 5 0.0799481 0.117702 0.169501
25282 5 0.0390336 0.116884 0.175451
25281 4 0.0553417 0.0848259 0.163809
25277 2 0.0562768 0.11098 0.166623
25215 5 0.0812389 0.0536897 0.168038
25209 2 0.0567105 0.0603535 0.16503
25188 1 0.109926 0.0849435 0.168193
25458 9 0.0507313 0.0308182 0.156232
25206 1 0.106819 0.0216297 0.17131
25220 7 0.0984443 0.0367142 0.147348
2433 1 0.0100175 0.0208497 0.173048
25219 7 0.0899166 0.0160663 0.150976
1949 1 0.00520754 0.0849177 0.172477
25292 7 0.126528 0.0979056 0.146041
25293 7 0.131326 0.074258 0.148551
22735 5 0.138166 0.117362 0.16916
22660 5 0.14088 0.0537851 0.171654
22905 9 0.140183 0.0363288 0.150005
22662 3 0.151735 0.114508 0.150364
22658 3 0.150725 0.0477735 0.152356
22656 2 0.158861 0.0448692 0.164071
20108 5 0.236887 0.11869 0.170414
20112 5 0.236824 0.0561375 0.171182
22663 5 0.178302 0.117773 0.165807
22654 1 0.201763 0.0859146 0.16961
22661 5 0.181935 0.0555592 0.16614
22669 7 0.229183 0.0338678 0.149215
22659 4 0.159161 0.020379 0.166748
22563 1 0.211129 0.0207704 0.170188
22629 6 0.219257 0.0211102 0.149514
22670 7 0.230212 0.00886487 0.147771
22906 9 0.165032 0.11662 0.146258
20106 3 0.250489 0.121139 0.151345
20036 3 0.255111 0.0493139 0.153142
20353 9 0.259245 0.11311 0.146409
20107 4 0.255489 0.0865652 0.161935
20031 2 0.256675 0.061435 0.164086
20104 2 0.25617 0.112029 0.162918
20352 9 0.269409 0.0422251 0.151668
20118 7 0.324307 0.0943257 0.148862
20117 7 0.308751 0.0804933 0.142493
20077 6 0.313445 0.082969 0.150021
17480 3 0.350761 0.0506592 0.152495
17799 9 0.342814 0.0638549 0.152369
17484 3 0.347133 0.113879 0.152472
17478 2 0.356587 0.0444847 0.164551
20109 5 0.27959 0.120262 0.165579
17482 5 0.337598 0.0537845 0.171507
20037 5 0.27863 0.0547398 0.168939
20011 1 0.308593 0.0857093 0.169988
20028 1 0.301912 0.0218621 0.17041
17481 4 0.356829 0.0201997 0.166524
20003 6 0.294637 0.0149901 0.150661
17413 7 0.372937 0.028922 0.142815
20042 7 0.301928 0.0152496 0.143953
17560 5 0.341867 0.115816 0.171967
17414 7 0.366996 0.00651429 0.145375
20041 7 0.281451 0.00623777 0.150425
17479 2 0.357949 0.12267 0.163165
17378 6 0.379015 0.013713 0.141384
17483 5 0.380032 0.0537065 0.167145
17485 5 0.380044 0.112668 0.166626
17490 7 0.426047 0.0992235 0.150859
17489 7 0.403023 0.108144 0.148553
17451 6 0.411207 0.0936209 0.149303
14856 3 0.453095 0.0478265 0.154082
15246 9 0.452867 0.0602518 0.149339
14929 4 0.454222 0.082708 0.163779
14926 2 0.457737 0.108141 0.164212
14851 2 0.456162 0.0580923 0.166022
14931 5 0.480921 0.112021 0.167789
14857 5 0.478812 0.0501074 0.17024
17476 1 0.403021 0.0816808 0.168961
14934 5 0.438099 0.0502107 0.173741
14930 5 0.441158 0.118031 0.17172
17384 1 0.408458 0.0194566 0.17277
17450 6 0.415608 0.0168889 0.153611
17491 7 0.427967 0.0269346 0.151708
17492 7 0.404883 0.0143609 0.14766
14928 3 0.456084 0.11983 0.152828
14861 7 0.478384 0.0284778 0.150873
14826 6 0.491316 0.019006 0.152198
14862 7 0.484912 0.00472743 0.154776
17475 7 0.317999 0.00402626 0.214157
25284 3 0.00676389 0.146276 0.15316
25280 5 0.0473534 0.125848 0.157296
25291 7 0.109382 0.155248 0.14383
25290 7 0.08572 0.146439 0.144004
2033 7 0.0497999 0.173806 0.134994
1995 6 0.0506134 0.15667 0.13697
25253 6 0.0984693 0.148855 0.148537
2032 7 0.0464817 0.147499 0.129775
25275 1 0.101403 0.150234 0.169604
25278 8 0.0361332 0.148777 0.150324
22957 9 0.0937001 0.204784 0.144734
22732 3 0.104653 0.211679 0.150692
25285 4 0.045728 0.167747 0.15994
25359 5 0.0402306 0.182454 0.177777
25356 5 0.0769123 0.24211 0.168352
25354 4 0.050277 0.210258 0.16421
25351 2 0.0538032 0.235926 0.165517
25286 5 0.0788726 0.179717 0.169019
25279 2 0.054386 0.185484 0.16807
25259 1 0.107939 0.212383 0.170303
25355 5 0.0380159 0.243635 0.174278
25433 7 0.0572285 0.199787 0.142979
25394 6 0.0603953 0.213133 0.139301
25432 7 0.0525535 0.224488 0.142727
2104 7 0.0162939 0.215129 0.149603
1933 1 0.00906619 0.148326 0.172568
2065 6 0.00522068 0.205659 0.152471
2103 7 0.00571197 0.194217 0.147663
2017 1 0.0038083 0.211225 0.173138
25353 3 0.0473413 0.24602 0.154577
22657 2 0.155773 0.125882 0.16155
1962 7 0.145901 0.219553 0.127397
1927 6 0.143313 0.227054 0.134136
22668 7 0.142801 0.139696 0.137862
22630 6 0.136335 0.154549 0.13586
1963 7 0.156215 0.239871 0.134907
22726 8 0.13451 0.215092 0.147757
22730 5 0.135587 0.178784 0.171616
22740 7 0.2255 0.138779 0.147479
22667 7 0.14065 0.16414 0.141333
22700 6 0.2116 0.146547 0.147942
22636 1 0.206861 0.1496 0.169181
22729 4 0.154974 0.151302 0.160011
22733 4 0.141591 0.233899 0.15837
20188 7 0.198502 0.197484 0.146385
20189 7 0.220536 0.207853 0.148559
22741 7 0.215612 0.161038 0.145496
20148 6 0.204557 0.210977 0.148599
22728 5 0.145476 0.189811 0.153101
22725 2 0.152552 0.176249 0.162848
20178 5 0.23738 0.244872 0.172649
20183 5 0.237005 0.181111 0.170594
22723 1 0.201572 0.214059 0.168969
22731 5 0.17642 0.182647 0.166648
22734 5 0.175566 0.244113 0.167476
22807 5 0.136833 0.248358 0.176335
20110 3 0.245113 0.177579 0.15144
17800 9 0.359141 0.107506 0.148127
20177 4 0.254499 0.212853 0.16103
20354 9 0.258618 0.170432 0.147725
20173 2 0.25608 0.237925 0.164771
20105 2 0.253832 0.186942 0.162076
17555 4 0.359231 0.147298 0.162284
20102 1 0.304288 0.148436 0.167339
17554 3 0.356289 0.173623 0.148281
17801 9 0.370743 0.178163 0.145649
17558 3 0.341502 0.23696 0.154054
17552 2 0.356395 0.172444 0.160829
17556 5 0.334118 0.180514 0.165888
20111 5 0.278944 0.180007 0.16359
20084 1 0.308984 0.210588 0.167069
17631 5 0.340865 0.243576 0.172948
17802 9 0.34471 0.244076 0.147196
20179 5 0.280078 0.24254 0.166277
17553 2 0.354845 0.249241 0.163132
20091 5 0.300789 0.153159 0.188264
20094 5 0.300393 0.211425 0.187241
17559 5 0.379193 0.243093 0.163763
17557 5 0.378059 0.181428 0.165261
17564 7 0.41564 0.21411 0.141327
15247 9 0.450189 0.134817 0.15413
17563 7 0.393987 0.220656 0.145509
14940 7 0.490986 0.130152 0.152756
17566 7 0.425898 0.157026 0.14638
17565 7 0.429804 0.132271 0.145776
17525 6 0.418144 0.142857 0.147188
14939 7 0.491689 0.152206 0.148925
17459 1 0.409 0.147231 0.167834
17526 6 0.404563 0.209182 0.146401
14899 6 0.443583 0.214893 0.134588
14938 7 0.451013 0.217584 0.14153
14937 7 0.451627 0.223984 0.129866
15248 9 0.451743 0.187355 0.144587
15002 3 0.4567 0.243675 0.148706
14932 3 0.450679 0.176876 0.150227
15000 2 0.457219 0.235868 0.161025
15003 4 0.457195 0.210968 0.162675
14927 2 0.457377 0.185464 0.161339
15005 5 0.480955 0.243567 0.164528
14933 5 0.480338 0.17883 0.164962
15004 5 0.436539 0.242514 0.166683
17550 1 0.40396 0.210875 0.166941
15008 5 0.440309 0.17657 0.169154
14898 6 0.501353 0.140607 0.150402
17539 5 0.397749 0.208416 0.184147
17468 5 0.399205 0.145158 0.185513
25227 3 0.0724796 0.0242464 0.246242
25195 5 0.103509 0.0215861 0.190644
25198 5 0.104829 0.086102 0.188945
25471 9 0.0765527 0.0101287 0.242703
25268 5 0.0628813 0.0843135 0.192383
25258 1 0.0311607 0.115061 0.19275
25207 1 0.0388923 0.0513945 0.193316
25191 2 0.0847224 0.0914446 0.196534
25263 4 0.0862673 0.116884 0.199567
25197 4 0.082253 0.076378 0.206438
25192 5 0.0790154 0.0346141 0.206975
25196 3 0.0397446 0.0568467 0.212551
25190 8 0.0699402 0.0565743 0.215046
25510 9 0.0283784 0.0587857 0.219332
22684 7 0.113683 0.0988069 0.225105
25517 7 0.0714354 0.0468929 0.235977
25240 6 0.0800569 0.0558193 0.230041
22685 7 0.0978428 0.10416 0.216191
25506 7 0.084746 0.0713318 0.233603
22649 6 0.104116 0.109667 0.22317
25194 5 0.0631867 0.0137253 0.194398
25189 2 0.085926 0.0175154 0.1991
25201 6 0.0124157 0.0514936 0.241577
25472 9 0.070866 0.09876 0.242549
22650 7 0.114894 0.0703915 0.212639
25237 7 0.0173384 0.0368096 0.239998
25310 7 0.0823477 0.117658 0.232078
25231 3 0.0786874 0.0886651 0.247754
22687 7 0.107792 0.0361018 0.235368
22717 6 0.121338 0.122117 0.244406
22686 7 0.126369 0.0243509 0.240937
22648 6 0.123382 0.0375019 0.236537
2441 5 0.00377495 0.0206252 0.193796
25269 6 -0.000167208 0.115174 0.239533
25270 6 0.066554 0.120359 0.23424
25308 6 0.0460861 0.110845 0.212103
25272 7 0.0455531 0.111536 0.22008
1939 5 0.00161836 0.0864619 0.193396
25200 6 0.0173316 0.00497314 0.245312
22919 9 0.173333 0.111299 0.248287
22653 7 0.152476 0.0109123 0.212408
22651 7 0.136884 0.0665647 0.21822
22759 7 0.13806 0.12525 0.2439
22683 6 0.128504 0.0642836 0.211124
20062 7 0.135402 0.0709995 0.234498
22635 1 0.131935 0.0554263 0.190311
20135 7 0.238307 0.0700672 0.242029
22572 5 0.201404 0.0232841 0.189608
22643 5 0.202001 0.0849411 0.188357
22931 9 0.18475 0.0207411 0.214734
20083 1 0.230719 0.118084 0.190461
22655 1 0.135978 0.116977 0.189342
20029 1 0.237598 0.0549362 0.191797
22642 5 0.161157 0.083919 0.191788
20063 7 0.181119 0.0762129 0.223164
22637 2 0.183922 0.0802264 0.196952
22641 4 0.187058 0.055603 0.201034
22565 2 0.185374 0.0303343 0.19885
22640 5 0.181157 0.0973561 0.205622
20060 6 0.239164 0.0627503 0.211995
20023 6 0.143375 0.081342 0.230624
20061 7 0.155716 0.0881226 0.234784
20022 6 0.193267 0.0657428 0.225163
20064 7 0.200238 0.0627106 0.218255
22647 5 0.161791 0.0221956 0.19556
20134 7 0.219249 0.0587725 0.237183
20096 6 0.226741 0.0597459 0.243991
22571 3 0.192315 0.0148184 0.208558
22965 7 0.177141 0.127292 0.233685
22612 6 0.168613 0.0296705 0.229654
22577 7 0.178924 0.0423258 0.230426
22576 7 0.153776 0.0362172 0.23019
22638 8 0.171053 0.1198 0.213119
22918 9 0.168343 0.0219485 0.243822
20099 7 0.227047 0.10163 0.212553
20024 7 0.244858 0.0501098 0.216536
22675 3 0.172549 0.0953954 0.247014
22688 6 0.18565 0.123197 0.22675
22644 3 0.141277 0.121996 0.208
20131 6 0.231608 0.116052 0.210627
20098 7 0.240885 0.120857 0.216997
20133 7 0.207215 0.107798 0.242935
17461 2 0.383436 0.153084 0.193977
20132 7 0.228513 0.11913 0.241633
17509 7 0.250477 0.0098384 0.221017
20025 7 0.252592 0.0717423 0.210386
17471 6 0.252994 0.0255318 0.22303
17427 4 0.359187 0.0133439 0.249609
20365 9 0.255182 0.0359363 0.245554
20051 3 0.268004 0.0276789 0.247356
20130 6 0.257606 0.124254 0.233937
17510 7 0.261026 0.0260489 0.229746
20366 9 0.265158 0.100738 0.242096
20016 5 0.259059 0.0252556 0.196147
20017 5 0.299338 0.0220232 0.190483
20020 5 0.301385 0.0865235 0.190279
17477 1 0.336846 0.117587 0.190724
17458 1 0.329523 0.0539091 0.191567
20095 5 0.260761 0.0865124 0.193364
17464 5 0.359618 0.0848039 0.193338
20013 2 0.282993 0.0950187 0.197461
20379 9 0.29765 0.0770492 0.209708
20089 4 0.28571 0.120603 0.197656
20019 3 0.284083 0.0870406 0.209329
20378 9 0.274427 0.0289777 0.215039
17466 6 0.324053 0.053802 0.211815
17493 7 0.311434 0.0460188 0.215081
17494 7 0.330257 0.0607843 0.218542
17473 7 0.345254 0.106539 0.215644
14960 7 0.364467 0.0852072 0.220985
17548 7 0.288694 0.112436 0.218327
14918 6 0.351292 0.0817764 0.224948
14959 7 0.355986 0.0828758 0.232551
17469 5 0.359064 0.0227028 0.196654
17456 7 0.293397 0.0456276 0.243904
17457 7 0.292778 0.0713044 0.243076
20014 3 0.289184 0.0268458 0.211333
20012 2 0.281818 0.0174269 0.199812
17503 6 0.302355 0.059089 0.245421
17499 3 0.36524 0.0919007 0.2458
17582 7 0.328191 0.107164 0.242991
17860 7 0.363129 0.00890673 0.223382
20056 3 0.269385 0.0882611 0.247347
17583 7 0.312833 0.122702 0.235727
17544 6 0.316172 0.117156 0.243007
17508 6 0.334491 0.116394 0.211869
17472 7 0.320139 0.116435 0.215612
17465 5 0.40159 0.0876579 0.190275
17813 9 0.37958 0.0993879 0.245874
17463 4 0.383695 0.0551013 0.197919
14870 5 0.463036 0.0319687 0.24817
17460 2 0.383296 0.0799292 0.197649
17462 3 0.384256 0.0916562 0.208852
17386 2 0.382456 0.0293604 0.199447
17825 9 0.396915 0.0111628 0.21207
17391 3 0.387728 0.0246542 0.211554
14906 1 0.432882 0.114408 0.190545
17392 5 0.400375 0.0212605 0.192167
17826 9 0.398999 0.0909108 0.211599
14849 1 0.43495 0.053689 0.194122
14917 5 0.462484 0.0815722 0.195541
14837 5 0.460002 0.0178533 0.196017
14911 4 0.482876 0.118091 0.198267
14834 2 0.484438 0.092581 0.198497
14839 3 0.491999 0.0867732 0.209792
14955 6 0.423648 0.0533937 0.213845
15273 9 0.493838 0.100994 0.214571
14922 7 0.430907 0.0498429 0.220225
14923 7 0.409961 0.0451424 0.214444
15308 7 0.474011 0.0672038 0.222653
14884 6 0.463889 0.0540854 0.225568
15297 7 0.472092 0.0407815 0.222499
15303 9 0.412487 0.0527945 0.237812
14868 8 0.455494 0.0558212 0.240571
14835 3 0.487488 0.0188198 0.211562
14874 3 0.424117 0.056037 0.243427
14833 2 0.483181 0.0133758 0.199388
12328 7 0.448327 0.101583 0.238562
14951 6 0.405309 0.114976 0.244198
14942 7 0.434917 0.109228 0.215512
12291 6 0.443755 0.112755 0.233086
14914 6 0.425024 0.111042 0.209404
14875 4 0.465205 0.0774285 0.248362
12408 7 0.47667 0.111661 0.228092
12366 6 0.490861 0.115212 0.225426
25381 7 0.0143009 0.240583 0.232711
22760 7 0.117487 0.118082 0.237247
14921 7 0.455633 0.191837 0.209295
2007 5 -0.00165165 0.21007 0.192721
1941 5 0.000644166 0.145963 0.192593
22791 6 0.0789632 0.244738 0.228208
22960 9 0.11445 0.238229 0.236463
25311 7 0.00322516 0.115377 0.231679
14991 5 0.461022 0.212529 0.191643
25267 5 0.101774 0.210952 0.190671
25309 7 0.0680798 0.132922 0.239273
25265 5 0.101301 0.149555 0.190195
25271 7 0.0606782 0.11458 0.210406
25348 7 0.017842 0.189161 0.217711
25484 9 0.0963986 0.134522 0.214568
25347 7 0.0192273 0.165176 0.217989
25512 9 0.0187536 0.17484 0.23475
25303 3 0.0296111 0.173548 0.241785
25260 2 0.0848269 0.141411 0.199019
25264 5 0.0610883 0.148661 0.196721
25332 1 0.0310479 0.23998 0.195592
25276 1 0.0362353 0.176892 0.196508
25342 5 0.0608208 0.209028 0.19698
25337 4 0.0856262 0.242325 0.200119
25261 2 0.0842277 0.217213 0.19915
25266 3 0.0913717 0.207914 0.210422
25262 3 0.0923363 0.148006 0.2106
25485 9 0.0933793 0.219639 0.215403
22720 7 0.117978 0.168996 0.213964
25377 6 0.0283856 0.177866 0.21627
25507 7 0.0739543 0.19147 0.221225
25518 7 0.0814961 0.165086 0.223874
25314 6 0.076601 0.180467 0.227616
25297 8 0.0591751 0.179288 0.240763
22757 7 0.104383 0.16804 0.242077
22718 6 0.115258 0.179178 0.244513
25304 4 0.0644742 0.203411 0.248766
22751 3 0.124688 0.242613 0.242685
22830 7 0.0642922 0.241303 0.225081
25378 6 0.0314532 0.248612 0.21642
25299 5 0.0733298 0.157335 0.248055
22825 6 0.129196 0.247667 0.21334
25343 6 0.00900261 0.241684 0.240134
22646 5 0.202612 0.147652 0.18892
20097 6 0.21631 0.119626 0.246371
20207 7 0.203367 0.237588 0.235683
22758 7 0.126457 0.177171 0.239191
22958 9 0.128356 0.125618 0.213261
20208 7 0.226912 0.241811 0.23981
22920 9 0.18853 0.140392 0.248581
15272 9 0.488005 0.00535425 0.215485
14847 7 0.444385 0.0135975 0.231314
22954 7 0.197546 0.137156 0.226706
22756 6 0.132193 0.175845 0.211704
22706 1 0.131477 0.180198 0.190918
22719 7 0.140116 0.177398 0.218249
22713 5 0.198856 0.213806 0.189266
20103 1 0.234528 0.181113 0.190555
20154 1 0.230505 0.243309 0.191186
22716 5 0.162008 0.148025 0.189877
22724 1 0.135811 0.244005 0.195108
22722 7 0.16054 0.182342 0.24012
22645 4 0.181611 0.143057 0.205706
22712 5 0.159922 0.216399 0.19568
22639 2 0.182392 0.156118 0.195748
22708 2 0.182885 0.206076 0.197685
22711 4 0.183617 0.180546 0.197748
22710 3 0.193646 0.212172 0.208495
22932 9 0.197394 0.197126 0.21214
20167 7 0.214313 0.232724 0.213579
20204 6 0.223501 0.245134 0.211733
20092 3 0.242036 0.187848 0.20996
22721 7 0.165904 0.163057 0.234462
20406 9 0.229271 0.189519 0.215518
22966 7 0.179597 0.236491 0.223584
22745 8 0.155986 0.242776 0.240821
20166 6 0.195995 0.177198 0.220981
20206 7 0.183653 0.184012 0.224243
22755 6 0.157648 0.176035 0.232991
20205 7 0.18988 0.16548 0.215945
22762 6 0.167452 0.247205 0.226523
20165 6 0.211754 0.241335 0.241972
22679 3 0.172936 0.143003 0.249253
14913 5 0.499528 0.149887 0.189477
20101 7 0.271904 0.12565 0.230174
17578 6 0.293961 0.125591 0.221992
12407 7 0.486448 0.127466 0.220823
20100 7 0.259088 0.130845 0.241411
17545 6 0.33027 0.242437 0.241688
20164 5 0.258547 0.219438 0.191558
20090 5 0.259624 0.15021 0.188771
17538 5 0.356864 0.202437 0.187684
17551 1 0.336662 0.242453 0.191223
17531 1 0.328049 0.179615 0.188144
17549 7 0.288541 0.138007 0.216914
20203 6 0.255927 0.246846 0.233367
20368 9 0.266402 0.219825 0.240527
17543 5 0.360397 0.146616 0.191288
20085 2 0.281379 0.145599 0.195
20086 8 0.272034 0.181614 0.213419
20087 2 0.28255 0.219032 0.195207
20159 4 0.286911 0.243477 0.199455
20088 5 0.277626 0.159455 0.204753
20093 4 0.280664 0.202626 0.204588
17547 7 0.352341 0.166904 0.204649
17540 3 0.340119 0.240646 0.210335
17579 6 0.3367 0.17069 0.207365
17534 8 0.370447 0.239107 0.211966
17546 7 0.332966 0.158088 0.211355
20136 6 0.287819 0.179581 0.226983
20413 7 0.281499 0.189633 0.233519
20402 7 0.286767 0.16327 0.230665
20127 3 0.270458 0.208013 0.245899
17571 3 0.367303 0.206684 0.244792
17580 7 0.339245 0.2306 0.245346
20367 9 0.268102 0.175811 0.249188
20123 3 0.271484 0.160579 0.248538
17815 9 0.372584 0.192333 0.242267
17504 3 0.375638 0.153985 0.247422
17617 7 0.282966 0.247104 0.228298
17618 7 0.307019 0.251889 0.231925
15030 7 0.410273 0.228131 0.23831
14912 5 0.459154 0.148729 0.193312
12353 7 0.499079 0.185919 0.239549
14904 7 0.415613 0.115352 0.237763
12329 7 0.449816 0.125596 0.236623
17861 7 0.373289 0.21963 0.230497
17827 9 0.386602 0.12739 0.204892
14992 6 0.411546 0.238978 0.243456
14910 3 0.488575 0.152301 0.209057
14979 1 0.430039 0.238492 0.189484
14957 7 0.430707 0.165759 0.247055
17533 2 0.379777 0.203607 0.192581
14956 6 0.441027 0.187579 0.209439
17814 9 0.390327 0.159077 0.246218
17850 7 0.389157 0.206942 0.222101
17537 4 0.383397 0.179023 0.195437
15261 9 0.481329 0.155764 0.243224
14919 6 0.417989 0.173608 0.242688
14915 3 0.488819 0.203343 0.206239
14947 3 0.466531 0.149703 0.244336
15274 9 0.488559 0.168575 0.208629
14941 7 0.412185 0.117984 0.212793
14920 7 0.440416 0.176479 0.215669
14908 2 0.482562 0.143584 0.197783
14997 7 0.41398 0.151928 0.215215
14905 7 0.393704 0.126524 0.243032
14925 1 0.434456 0.178598 0.189344
15262 9 0.46317 0.197261 0.246091
14958 7 0.420365 0.17028 0.234874
17467 3 0.392004 0.142909 0.204973
17536 5 0.376424 0.221533 0.201006
14996 7 0.430576 0.141525 0.223428
14909 2 0.485048 0.215593 0.195446
15026 6 0.422758 0.155383 0.221457
17584 6 0.383441 0.222722 0.223611
14985 4 0.488307 0.242046 0.197789
15031 7 0.396319 0.24489 0.243604
22652 7 0.135038 0.0168773 0.220579
22682 6 0.13821 0.00532459 0.215157
20009 7 0.199412 0.00361473 0.246334
25382 7 -0.00486007 0.233695 0.238523
25239 7 0.00154769 0.00630509 0.242657
17854 9 0.329053 0.240144 0.217034
22747 5 0.163666 0.221722 0.249486
25178 3 0.0291644 0.0593958 0.301429
25245 3 0.0367785 0.117184 0.300904
25251 5 0.022721 0.0548142 0.281634
25246 4 0.0425044 0.0859803 0.287483
25243 2 0.0411424 0.111857 0.289008
25224 1 0.0923355 0.0856795 0.287849
25179 5 0.0624809 0.0533232 0.289797
25173 2 0.0388083 0.0615365 0.29002
22624 5 0.120965 0.0602909 0.286953
22699 5 0.119594 0.120629 0.28488
25170 1 0.0880359 0.0232862 0.285822
25232 5 0.0849936 0.0868835 0.267316
25230 5 0.0869212 0.0281791 0.265438
22671 1 0.115597 0.059543 0.264175
25171 1 0.0193331 0.0564457 0.261837
25229 5 0.045972 0.0274945 0.261404
25294 1 0.0130157 0.118592 0.260701
25306 5 0.0446348 0.0894259 0.260735
25226 2 0.0681772 0.0958668 0.259139
25225 2 0.0688678 0.018219 0.258521
25496 9 0.0399085 0.0543047 0.306767
25288 6 0.100234 0.0851468 0.308527
25218 6 0.0913213 0.0224834 0.30628
25497 9 0.0254352 0.109063 0.304722
11751 7 0.500628 0.188265 0.400038
22619 1 0.118901 0.121045 0.265297
25300 4 0.0688735 0.121957 0.257592
25257 7 0.109885 0.097486 0.310478
25256 7 0.110167 0.0721592 0.309152
25247 5 0.0217687 0.121615 0.281755
24744 7 0.00528493 0.153294 0.416443
1930 7 0.012302 0.0316659 0.307687
1929 7 0.00478919 0.0847962 0.304737
25248 5 0.0636677 0.122171 0.28647
25184 7 0.10192 0.0231079 0.312269
22622 3 0.134519 0.056359 0.305587
22623 4 0.141034 0.0274687 0.292335
22681 5 0.142624 0.0319547 0.262544
22620 2 0.141201 0.052618 0.293571
19999 4 0.230995 0.0465618 0.299078
19993 2 0.236308 0.0647366 0.291445
20068 2 0.237384 0.113751 0.294879
20071 4 0.23311 0.0877127 0.295451
22625 5 0.163332 0.0616406 0.289378
22627 5 0.15957 0.11993 0.290709
22618 1 0.184515 0.0921335 0.285582
20076 5 0.220576 0.0644156 0.281896
22600 1 0.192345 0.028922 0.287764
22609 5 0.183472 0.0278969 0.268356
22678 5 0.183207 0.0915319 0.26613
19990 1 0.218944 0.0564538 0.264968
22677 5 0.144686 0.0874505 0.261601
20129 5 0.242498 0.0934306 0.261766
20053 5 0.241391 0.0260924 0.263098
22602 2 0.166907 0.0326816 0.259671
22673 2 0.168193 0.0827154 0.257642
22676 4 0.170524 0.0576863 0.255869
19998 3 0.194763 0.029359 0.306662
19994 5 0.230793 0.00164711 0.301592
19992 8 0.225484 0.0255646 0.309191
20119 1 0.216293 0.1206 0.267247
22943 9 0.133709 0.0416409 0.30915
20072 5 0.2201 0.123403 0.28633
20391 9 0.234903 0.11289 0.311467
22608 3 0.171541 0.015248 0.250556
22545 2 0.141011 0.00181655 0.290166
22626 3 0.128564 0.118176 0.303955
22944 9 0.117518 0.129088 0.307312
20000 5 0.26168 0.0612291 0.288958
17448 5 0.362826 0.114531 0.287174
17440 8 0.328454 0.0870482 0.308794
17446 3 0.298334 0.0914007 0.307246
17442 5 0.33267 0.0652094 0.300046
17447 4 0.334694 0.109012 0.300388
17443 4 0.338455 0.0268272 0.292974
17439 2 0.338483 0.0513238 0.290584
20048 1 0.292461 0.090732 0.287775
19989 1 0.285389 0.0268841 0.287401
17445 5 0.362562 0.0575252 0.288004
17444 5 0.320634 0.0558617 0.282038
20057 5 0.284171 0.0922295 0.266972
17495 1 0.310179 0.057792 0.264439
17506 5 0.341076 0.022374 0.263953
20054 5 0.282251 0.0266053 0.266386
17438 1 0.319175 0.121495 0.263385
17501 5 0.341151 0.0894087 0.260888
17421 2 0.363605 0.0289983 0.258977
20050 2 0.266143 0.0981299 0.258734
20049 2 0.264306 0.0182601 0.259067
17497 2 0.362659 0.0790935 0.256982
20040 6 0.291796 0.0346874 0.30721
17500 4 0.36281 0.0539132 0.255293
20073 5 0.261163 0.119178 0.291269
20005 7 0.305592 0.044277 0.306797
20124 4 0.267982 0.124021 0.258654
17857 9 0.290694 0.106794 0.308488
17524 5 0.322142 0.123277 0.282481
17441 2 0.339989 0.123991 0.290913
17502 5 0.381356 0.0846767 0.264422
17428 5 0.383883 0.025242 0.265999
17437 1 0.387401 0.0844089 0.285317
14860 6 0.497144 0.0864191 0.305948
15286 9 0.42238 0.0450294 0.303245
14822 3 0.436167 0.0527565 0.302341
14891 4 0.439522 0.0865835 0.291309
14817 2 0.440825 0.0611839 0.290707
14887 2 0.440999 0.111653 0.28987
14823 5 0.462751 0.0519413 0.287039
17418 1 0.392608 0.0234618 0.285264
14893 5 0.462025 0.121211 0.285674
14897 5 0.423503 0.0538661 0.283047
14892 5 0.42273 0.114782 0.281412
14866 1 0.492338 0.0853563 0.28534
14814 1 0.486379 0.0220955 0.28548
14873 5 0.483252 0.0243179 0.264645
14876 5 0.483974 0.0837297 0.265368
14815 1 0.417287 0.0535996 0.262717
14943 1 0.410356 0.114877 0.264515
14954 5 0.441406 0.0884842 0.261896
17412 6 0.398944 0.020327 0.305015
14869 2 0.465332 0.0919558 0.25813
14872 5 0.442717 0.0227426 0.263336
14867 2 0.463763 0.0167142 0.25777
17380 7 0.408419 0.00668967 0.307008
14948 4 0.468328 0.116311 0.255054
17379 7 0.390205 0.0223529 0.311144
25296 2 0.067462 0.14619 0.258911
25241 1 0.084715 0.153842 0.286415
25249 3 0.0223534 0.176578 0.29714
25360 6 0.0886984 0.223717 0.305634
25320 4 0.0369426 0.215353 0.288956
25317 2 0.0351842 0.240624 0.289467
25295 1 0.0880099 0.215554 0.284737
25250 5 0.0587501 0.180895 0.287785
25244 2 0.0352608 0.190497 0.288591
22695 5 0.119719 0.184352 0.284125
25325 5 0.0211898 0.18309 0.278598
25302 5 0.0860643 0.151819 0.266465
25305 5 0.0818445 0.217241 0.265582
22742 1 0.112349 0.184243 0.264141
25301 5 0.0435104 0.151237 0.261102
25242 1 0.0179225 0.178851 0.259118
25376 5 0.0394327 0.220927 0.26019
25298 2 0.064309 0.221753 0.256985
25289 6 0.0821304 0.155573 0.306893
25366 1 0.0114956 0.243499 0.260443
25331 7 0.100906 0.234426 0.306155
25498 9 0.0150546 0.18653 0.302267
25371 4 0.0668664 0.245627 0.252351
22690 1 0.1173 0.246637 0.261753
22945 9 0.114531 0.194193 0.304461
22773 5 0.121167 0.244927 0.281025
1999 7 0.00051663 0.228247 0.303723
25322 5 0.0581578 0.249239 0.286633
25330 7 0.0772672 0.230164 0.310157
25254 7 0.0698734 0.154534 0.311546
25504 7 0.0307918 0.165488 0.314462
25321 5 0.0170575 0.248066 0.281585
20070 3 0.232624 0.124028 0.305914
22697 3 0.128649 0.247159 0.301194
22693 3 0.126028 0.183383 0.304272
22621 2 0.136829 0.127542 0.293302
22694 4 0.137728 0.152831 0.292746
22691 2 0.134634 0.177796 0.293052
22748 4 0.17188 0.181558 0.256742
22674 2 0.168734 0.156745 0.259836
22754 5 0.145354 0.148925 0.26326
20202 5 0.242793 0.213418 0.260526
22672 1 0.187131 0.154465 0.288275
20142 4 0.23989 0.213704 0.289614
20147 5 0.218976 0.181038 0.28625
22696 5 0.158167 0.185436 0.291159
20074 3 0.233747 0.18579 0.305396
20069 2 0.238372 0.188949 0.292901
22689 1 0.184665 0.216754 0.288398
20392 9 0.221475 0.175499 0.30618
20139 2 0.240054 0.238779 0.291653
20067 1 0.21721 0.185996 0.265534
22680 5 0.183879 0.152611 0.269172
22750 5 0.181961 0.214411 0.267913
22749 5 0.142371 0.206071 0.262432
20125 5 0.241674 0.155673 0.261999
22744 2 0.166079 0.206595 0.258736
22737 6 0.194426 0.218739 0.309155
22736 6 0.191245 0.160358 0.308498
22703 7 0.20428 0.205659 0.309244
20393 9 0.224288 0.241318 0.306685
22698 5 0.160529 0.245362 0.287127
20190 1 0.211961 0.245497 0.263749
20141 3 0.23721 0.246997 0.303598
22704 7 0.194821 0.151369 0.314656
20143 5 0.220771 0.24747 0.285262
17522 3 0.331726 0.244313 0.299955
20144 5 0.26326 0.246867 0.287664
17572 4 0.365478 0.1828 0.260429
20126 5 0.279988 0.15685 0.268321
20075 5 0.261256 0.181227 0.290964
20066 1 0.286629 0.151541 0.287245
17516 2 0.342836 0.174837 0.2923
17518 3 0.342418 0.18501 0.303882
20079 7 0.315672 0.205072 0.304633
20114 6 0.301649 0.212942 0.306331
17519 4 0.342405 0.149186 0.29338
17521 5 0.364616 0.183457 0.28819
20120 1 0.290905 0.212205 0.286131
17520 5 0.322384 0.182254 0.286037
17595 5 0.318657 0.241099 0.282039
17567 1 0.314817 0.1833 0.266099
20128 5 0.283575 0.208859 0.265071
17577 5 0.344164 0.149579 0.261588
17573 5 0.34319 0.216217 0.260321
17498 2 0.367345 0.157619 0.259236
20121 2 0.264484 0.148466 0.259343
17569 2 0.365671 0.207277 0.257326
20122 2 0.266049 0.218854 0.257346
20196 4 0.267248 0.244451 0.2557
20113 6 0.280657 0.146807 0.306775
17839 9 0.342478 0.173254 0.309039
17529 7 0.366607 0.231036 0.303495
17530 7 0.367721 0.208313 0.307268
17840 9 0.321181 0.231583 0.300394
17523 5 0.360746 0.241149 0.285784
17515 1 0.31712 0.24517 0.260472
20081 7 0.266114 0.140246 0.30457
17561 6 0.378023 0.220589 0.305969
20080 7 0.303481 0.213984 0.314069
15020 4 0.468386 0.242541 0.256611
17505 5 0.383847 0.149023 0.267384
17574 5 0.385179 0.215775 0.26461
17514 1 0.385742 0.211771 0.286398
14890 5 0.431412 0.125188 0.298886
14945 2 0.463108 0.141861 0.255667
14886 1 0.418203 0.181342 0.262769
14894 3 0.39513 0.15086 0.305146
14972 5 0.421387 0.181601 0.280812
14896 5 0.459473 0.178714 0.287329
14888 8 0.425081 0.147535 0.307283
12342 3 0.493658 0.216837 0.305599
14895 4 0.428943 0.170849 0.29837
14964 2 0.438604 0.237256 0.292583
14967 4 0.438986 0.211824 0.29244
14889 2 0.437254 0.187067 0.290055
17496 1 0.394381 0.147279 0.286382
14944 1 0.491165 0.21486 0.286135
14885 1 0.48432 0.150901 0.284188
14953 5 0.481592 0.212692 0.269007
14936 6 0.48858 0.150573 0.304997
14950 5 0.481351 0.150738 0.263047
15025 5 0.442349 0.211515 0.261285
14949 5 0.440404 0.151839 0.259046
14946 2 0.466436 0.217746 0.259505
14969 5 0.460468 0.246419 0.288663
15015 1 0.413303 0.244876 0.264121
14968 5 0.420278 0.245869 0.285662
15305 9 0.382838 0.151778 0.310602
14966 3 0.434481 0.246264 0.30377
25183 7 0.0814599 0.0115111 0.309555
24544 6 0.0889753 0.0211355 0.334583
24654 7 0.0861557 0.0851221 0.326038
24655 7 0.107252 0.0910875 0.332529
24614 6 0.0908043 0.0889668 0.333233
24820 9 0.0119158 0.0545979 0.339433
24550 1 0.0892122 0.0860748 0.354576
24571 2 0.0335469 0.0610151 0.352215
24576 3 0.0223748 0.046232 0.343941
24577 5 0.0583537 0.0557445 0.352934
24639 2 0.0344691 0.111169 0.350919
24643 4 0.0309453 0.0854725 0.350544
24644 5 0.0181186 0.118127 0.359526
24645 5 0.0583265 0.116741 0.353961
24649 5 0.0203944 0.0604266 0.363322
24568 1 0.0849606 0.0258007 0.354261
22022 5 0.117456 0.0570248 0.353685
22097 5 0.118248 0.115766 0.354352
24582 7 0.103138 0.0172666 0.332147
24581 7 0.0790104 0.0137882 0.329471
24819 9 0.0302629 0.0148224 0.34297
22267 9 0.140695 0.0729812 0.336708
22017 1 0.118077 0.115834 0.374674
20409 9 0.184755 0.0340741 0.313359
22634 7 0.136196 0.0254845 0.326421
22665 6 0.131558 0.0217394 0.31913
22268 9 0.131973 0.116769 0.329231
22633 7 0.142865 0.0105048 0.317959
22020 3 0.13752 0.0576051 0.337298
22024 3 0.13331 0.108497 0.335771
22032 7 0.203121 0.0400998 0.334021
22021 4 0.138775 0.024138 0.350095
20065 6 0.245745 0.0269425 0.321112
20416 7 0.246745 0.0396491 0.326828
22631 7 0.17524 0.0880036 0.328158
22632 7 0.171352 0.0660322 0.332952
19714 9 0.224163 0.0720111 0.334258
22666 6 0.180559 0.0784782 0.333484
19468 3 0.235005 0.108848 0.335356
19398 3 0.230142 0.0580266 0.336798
19466 2 0.239324 0.109157 0.347857
19469 4 0.236771 0.0847086 0.35124
19393 2 0.236773 0.0596089 0.349038
19470 5 0.219025 0.119484 0.352808
19474 5 0.217844 0.0504471 0.356361
22016 1 0.185551 0.0857807 0.353235
22018 2 0.138956 0.0487819 0.348983
22023 5 0.159406 0.0590202 0.353925
22025 5 0.159551 0.117644 0.350762
21925 1 0.188108 0.0225654 0.355029
21991 6 0.196536 0.0251511 0.334892
22031 7 0.210087 0.0152783 0.333674
19715 9 0.248837 0.106297 0.331582
20415 7 0.24371 0.0132166 0.326399
22005 5 0.183887 0.0872675 0.374321
22019 2 0.136042 0.122952 0.345887
19445 1 0.2109 0.116757 0.374481
14624 9 0.497948 0.185378 0.421378
20004 7 0.289719 0.0301366 0.315248
17455 7 0.351202 0.0131476 0.323449
20039 6 0.294937 0.0201474 0.332485
17513 6 0.351338 0.0865751 0.320689
17864 7 0.348223 0.0736123 0.326399