ITEM: TIMESTEP
75000
ITEM: NUMBER OF ATOMS
25520
ITEM: BOX BOUNDS pp pp pp
-2.5397287759983600e-01 5.9952516467599246e+01
-1.8083123047457395e+00 5.8978597578745976e+01
-1.2366390433924723e+01 1.1164212283992499e+02
ITEM: ATOMS id type xs ys zs
25292 7 0.102575 0.0377939 0.120388
25293 7 0.0810755 0.0467977 0.114345
25252 6 0.0876674 0.0434292 0.121471
25220 7 0.0519228 0.0503432 0.103599
25182 6 0.064617 0.0429321 0.101284
25219 7 0.0614659 0.0283636 0.104244
25253 6 0.0843284 0.112312 0.121403
25278 8 0.0168533 0.118855 0.119895
25290 7 0.097467 0.104608 0.119295
25291 7 0.0745187 0.100277 0.123384
1995 6 0.0271101 0.12253 0.105416
2033 7 0.0169741 0.120348 0.0987144
22906 9 0.133317 0.0691658 0.122006
22658 3 0.134414 0.0334095 0.12527
22662 3 0.130309 0.0850747 0.122673
22905 9 0.142807 0.0282408 0.119453
22667 7 0.152276 0.105312 0.11322
20106 3 0.233903 0.0860438 0.125624
20036 3 0.234264 0.0228614 0.126246
20353 9 0.221627 0.095993 0.12501
20352 9 0.238309 0.0350003 0.121467
22700 6 0.192358 0.11504 0.123066
22740 7 0.181186 0.117402 0.117266
22630 6 0.155289 0.11958 0.109954
20118 7 0.281006 0.0504882 0.11968
17451 6 0.369153 0.0495044 0.127872
17800 9 0.338961 0.0692157 0.127671
22739 7 0.139767 0.246598 0.111208
17566 7 0.389713 0.105738 0.119963
17489 7 0.377703 0.0426286 0.121846
15247 9 0.427183 0.104924 0.126307
17525 6 0.387767 0.119148 0.124886
14898 6 0.482405 0.105065 0.125117
14939 7 0.467259 0.0996176 0.127083
17565 7 0.402537 0.125505 0.125129
14940 7 0.48332 0.103223 0.117502
12389 7 0.493958 0.165552 0.18997
2032 7 0.037181 0.137313 0.104394
22726 8 0.118569 0.180904 0.120028
22957 9 0.0754722 0.178386 0.115797
2101 7 0.0364921 0.160574 0.114553
2066 6 0.0401214 0.171914 0.109495
22732 3 0.0885525 0.174541 0.121249
2102 7 0.037015 0.186796 0.113239
25459 9 0.028984 0.22871 0.122393
25326 6 0.0921463 0.244129 0.120799
25353 3 0.02323 0.213451 0.124101
25365 7 0.0856051 0.246764 0.113726
25378 6 0.00131453 0.215813 0.185366
22728 5 0.1326 0.155977 0.123638
22741 7 0.203729 0.125821 0.122389
22668 7 0.144452 0.127706 0.113483
20148 6 0.190534 0.180809 0.124076
20188 7 0.20477 0.174975 0.125238
20189 7 0.188819 0.18253 0.116569
20180 3 0.187292 0.246665 0.121176
20174 8 0.218313 0.243475 0.118689
22738 7 0.142362 0.223369 0.114272
22701 6 0.146251 0.233117 0.108475
20078 6 0.235658 0.241789 0.105696
20405 9 0.175084 0.240646 0.116087
17802 9 0.324854 0.213036 0.122448
17554 3 0.329217 0.157855 0.128274
17801 9 0.324825 0.172446 0.130736
17564 7 0.361088 0.16519 0.12745
17526 6 0.376263 0.171112 0.125457
17563 7 0.381866 0.159289 0.1211
14938 7 0.42331 0.167 0.107717
15248 9 0.431604 0.152744 0.122038
14899 6 0.437517 0.16917 0.112025
14937 7 0.433668 0.184051 0.115198
15002 3 0.428152 0.214851 0.124113
15249 9 0.418966 0.227115 0.123504
15012 7 0.453978 0.214805 0.114297
14974 6 0.457501 0.212786 0.106991
15014 7 0.478084 0.230068 0.114693
14973 6 0.480332 0.239708 0.120879
17596 6 0.38581 0.245213 0.12238
15011 7 0.452449 0.19783 0.106221
17636 7 0.384834 0.233439 0.116973
25280 5 0.0261562 0.0947538 0.127257
25214 3 0.0185865 0.0136011 0.127557
25308 6 0.00688492 0.0864962 0.185038
25287 5 0.0157349 0.0260496 0.147203
25283 5 0.0562956 0.0810033 0.137799
25282 5 0.0145814 0.0841598 0.14495
25281 4 0.0255118 0.0516435 0.134135
25277 2 0.0314816 0.077839 0.135948
25275 1 0.0792271 0.115619 0.14218
25268 5 0.0407856 0.0649733 0.165705
25265 5 0.0777242 0.11916 0.161674
25264 5 0.0378329 0.119737 0.169029
25258 1 0.010685 0.0855924 0.165124
22660 5 0.11824 0.0232259 0.143017
25215 5 0.0544355 0.0223992 0.139455
25209 2 0.0294912 0.0276639 0.137209
25207 1 0.0155803 0.0261273 0.165747
25198 5 0.0782593 0.0547686 0.160988
25191 2 0.0640415 0.064636 0.169888
22735 5 0.116063 0.0863748 0.142481
25188 1 0.08602 0.0524468 0.141771
25263 4 0.0666442 0.0890944 0.173071
25260 2 0.0627924 0.114857 0.171299
22635 1 0.10932 0.0231061 0.163469
22655 1 0.113034 0.0878059 0.162547
25197 4 0.0599801 0.0494279 0.17972
22683 6 0.105274 0.0334252 0.183915
22958 9 0.101316 0.0922496 0.187971
25196 3 0.0194819 0.0240867 0.186423
25190 8 0.0493095 0.0273858 0.187489
25192 5 0.0593847 0.00512826 0.179165
22644 3 0.114291 0.0908591 0.182314
22650 7 0.0941385 0.0454721 0.184788
20116 7 0.238079 0.224385 0.102669
22651 7 0.110986 0.0318554 0.190705
25510 9 0.00710823 0.0339454 0.189871
20107 4 0.237516 0.0543181 0.13839
20104 2 0.237489 0.0798395 0.13761
20031 2 0.235725 0.0290306 0.138346
22729 4 0.134902 0.117802 0.134145
22656 2 0.136976 0.0183191 0.135353
22657 2 0.13525 0.0916331 0.134452
20108 5 0.217915 0.0868675 0.144697
20112 5 0.213468 0.0267977 0.144018
22636 1 0.186352 0.118537 0.143037
22663 5 0.15858 0.0841201 0.138165
22654 1 0.183579 0.0559191 0.142379
22661 5 0.160416 0.024455 0.139066
20029 1 0.212479 0.0265315 0.166358
20083 1 0.206411 0.0854753 0.164452
22637 2 0.15885 0.0500055 0.169915
22642 5 0.138695 0.0557627 0.162877
22643 5 0.181128 0.0566421 0.164211
22646 5 0.179216 0.120416 0.161738
22641 4 0.160704 0.0248995 0.173045
22645 4 0.155495 0.110648 0.177581
22640 5 0.154287 0.0670775 0.178869
20060 6 0.210747 0.0113729 0.185224
22638 8 0.144894 0.0906939 0.186384
20090 5 0.235387 0.112058 0.168654
20095 5 0.23506 0.056661 0.172645
20024 7 0.225025 0.00503164 0.182826
20117 7 0.301021 0.061405 0.125302
20077 6 0.29056 0.0486512 0.126478
17490 7 0.362547 0.0366083 0.13177
17480 3 0.333088 0.0181422 0.129977
17799 9 0.322669 0.029819 0.128419
17484 3 0.326522 0.0767651 0.129836
17555 4 0.328198 0.116683 0.137369
17478 2 0.336924 0.0174965 0.142464
17479 2 0.331634 0.0924048 0.139859
17485 5 0.355423 0.0873518 0.14343
17483 5 0.358647 0.0280117 0.146319
17560 5 0.315225 0.0867642 0.148699
20109 5 0.258323 0.0890671 0.142923
20102 1 0.281471 0.119336 0.146139
17482 5 0.318821 0.0294576 0.149398
20037 5 0.257273 0.0203416 0.143421
20011 1 0.285783 0.0547759 0.147474
17458 1 0.308709 0.0270819 0.16958
17464 5 0.33685 0.0620119 0.171155
17477 1 0.310154 0.0892896 0.168878
17543 5 0.337439 0.119614 0.171245
20013 2 0.258847 0.0635681 0.175728
20020 5 0.276925 0.0551024 0.168102
20085 2 0.25911 0.113341 0.173493
20091 5 0.276217 0.118945 0.164867
20089 4 0.26305 0.0885008 0.176909
20019 3 0.264352 0.0513833 0.186964
17472 7 0.331002 0.104505 0.187363
17460 2 0.359202 0.0523942 0.175596
17463 4 0.358823 0.0271177 0.174241
20378 9 0.261263 0.0127709 0.186527
17462 3 0.360215 0.0603278 0.187236
17826 9 0.362066 0.0761636 0.187543
17467 3 0.363803 0.111643 0.184866
17386 2 0.359633 0.00194759 0.176232
14946 2 0.457537 0.199508 0.237056
14928 3 0.435789 0.0910507 0.126681
14952 3 0.46763 0.183411 0.228367
14856 3 0.431683 0.0174731 0.130235
15246 9 0.418726 0.00865134 0.130705
14929 4 0.427324 0.0578555 0.138461
14926 2 0.43222 0.0823401 0.138687
14851 2 0.432214 0.0321472 0.140754
14931 5 0.454747 0.0870174 0.143739
14857 5 0.455782 0.0300104 0.144205
14924 1 0.481139 0.119589 0.144759
17476 1 0.381282 0.0590294 0.147012
17459 1 0.385306 0.119974 0.145319
14832 1 0.484102 0.0581012 0.14803
14934 5 0.416674 0.0223703 0.150061
14930 5 0.413354 0.0927645 0.145255
14913 5 0.476117 0.123633 0.166054
14840 5 0.478722 0.0580406 0.167824
14917 5 0.436812 0.0596607 0.172641
14906 1 0.408329 0.088464 0.168122
14849 1 0.412317 0.0250099 0.170087
17465 5 0.379194 0.0599749 0.168641
15272 9 0.472045 0.0109966 0.18721
17827 9 0.378866 0.112576 0.18706
14834 2 0.460011 0.0662288 0.175174
14908 2 0.459101 0.116456 0.174049
14912 5 0.436845 0.12175 0.169753
17468 5 0.378854 0.11838 0.165885
14911 4 0.46241 0.0912837 0.174997
14839 3 0.46277 0.0607583 0.187309
14914 6 0.410029 0.104143 0.187969
12292 7 0.491076 0.0443545 0.189374
14942 7 0.422821 0.111833 0.185066
25262 3 0.0728777 0.126455 0.181591
15261 9 0.464496 0.148317 0.22544
25484 9 0.0684519 0.142217 0.181386
25285 4 0.0265009 0.140861 0.128249
25359 5 0.0135554 0.150122 0.147407
25356 5 0.0539291 0.214684 0.139051
25354 4 0.0299004 0.180096 0.135625
25351 2 0.0304559 0.206543 0.136181
25349 1 0.0793244 0.243456 0.140854
25342 5 0.0354392 0.178451 0.164922
15015 1 0.402948 0.223408 0.243103
25334 2 0.0568938 0.240269 0.168512
25332 1 0.00521004 0.213702 0.164454
25286 5 0.0536603 0.145125 0.14141
25279 2 0.0308199 0.154352 0.138398
25276 1 0.013505 0.149265 0.165929
25267 5 0.0759335 0.180696 0.161343
25261 2 0.0566326 0.190071 0.167837
25259 1 0.0835211 0.180114 0.140738
22730 5 0.11371 0.150105 0.141448
22807 5 0.115309 0.213195 0.145024
25337 4 0.0557718 0.214942 0.167622
25339 5 0.0742182 0.247101 0.160626
22706 1 0.10883 0.152968 0.161591
22724 1 0.109931 0.212804 0.164079
25355 5 0.0125793 0.215089 0.143608
22756 6 0.102333 0.160738 0.183342
25485 9 0.0739385 0.174268 0.180618
25266 3 0.0593612 0.18164 0.17971
25336 3 0.0621547 0.246873 0.180636
22825 6 0.119851 0.212462 0.184553
25377 6 0.00739264 0.151378 0.186539
25486 9 0.0598196 0.233214 0.185161
22796 7 0.136074 0.208591 0.184697
20354 9 0.237878 0.143975 0.122501
20110 3 0.228062 0.141968 0.128205
22716 5 0.137986 0.125905 0.163499
22733 4 0.127869 0.203382 0.127187
20176 5 0.226787 0.221076 0.127758
22795 7 0.113402 0.199559 0.187137
20177 4 0.231245 0.18085 0.134718
20105 2 0.233717 0.156332 0.138224
22639 2 0.159907 0.127262 0.168958
22802 4 0.131386 0.245139 0.132486
20173 2 0.232932 0.206019 0.136687
20160 5 0.232693 0.240872 0.168651
22727 2 0.133244 0.219616 0.136328
22725 2 0.134702 0.142913 0.134219
20178 5 0.216369 0.212936 0.145265
20183 5 0.216202 0.153542 0.146779
22707 1 0.184203 0.244279 0.140461
22723 1 0.179615 0.180666 0.143073
22734 5 0.156431 0.213507 0.139723
22731 5 0.155096 0.149731 0.140059
20103 1 0.212465 0.150704 0.166377
20154 1 0.206322 0.210563 0.163159
22708 2 0.159596 0.176229 0.172905
22712 5 0.136723 0.178693 0.168091
22713 5 0.174312 0.182603 0.163381
22715 5 0.175718 0.242062 0.159683
22711 4 0.162982 0.150335 0.173962
20092 3 0.214973 0.151087 0.185832
22714 3 0.167204 0.233647 0.178185
22710 3 0.163172 0.190953 0.183114
22932 9 0.170464 0.204821 0.180963
20204 6 0.214931 0.20556 0.182663
20167 7 0.228399 0.21457 0.181011
20168 7 0.220306 0.191217 0.182947
20164 5 0.238462 0.182089 0.165826
22933 9 0.158404 0.2376 0.184418
22790 5 0.136139 0.241011 0.163815
17461 2 0.361107 0.124591 0.173803
14958 7 0.419278 0.152283 0.222327
17558 3 0.323688 0.204937 0.128739
17625 4 0.332317 0.245251 0.135814
17552 2 0.332137 0.142543 0.138759
17553 2 0.332263 0.219574 0.138936
17557 5 0.354803 0.148711 0.142345
17559 5 0.355113 0.211342 0.142396
17556 5 0.314058 0.151513 0.146635
20179 5 0.257205 0.21117 0.140403
20111 5 0.25825 0.154613 0.142133
20084 1 0.286866 0.182488 0.145631
17631 5 0.314738 0.216005 0.147873
20171 1 0.279146 0.244624 0.144731
20088 5 0.255533 0.131226 0.182136
17531 1 0.306906 0.149729 0.167355
17538 5 0.336891 0.175031 0.167117
17551 1 0.310036 0.214483 0.1666
20087 2 0.25854 0.188773 0.17256
20094 5 0.279941 0.183031 0.166636
20156 2 0.257106 0.239071 0.172865
20159 4 0.261993 0.214211 0.175233
20093 4 0.253541 0.175926 0.182688
17536 5 0.355451 0.192235 0.181016
17540 3 0.317926 0.213117 0.18563
17579 6 0.298435 0.159685 0.186783
17541 4 0.359066 0.236856 0.180581
17533 2 0.359347 0.174733 0.172424
17537 4 0.364898 0.150326 0.175896
20161 5 0.273964 0.246529 0.164587
14932 3 0.427807 0.142812 0.128755
14910 3 0.460435 0.128191 0.185064
15000 2 0.431282 0.206277 0.135612
15003 4 0.428083 0.180969 0.136751
14927 2 0.432334 0.155981 0.138988
15005 5 0.455498 0.209936 0.138506
14933 5 0.45639 0.14857 0.142109
14998 1 0.479419 0.241827 0.141685
14986 5 0.438473 0.242846 0.165146
14907 1 0.485652 0.181847 0.145103
15004 5 0.414092 0.216507 0.143034
17532 1 0.384867 0.245518 0.143033
17550 1 0.379561 0.181701 0.144584
15008 5 0.417725 0.151372 0.14819
12369 7 0.491796 0.202429 0.188954
14916 5 0.477475 0.179529 0.165984
14979 1 0.407154 0.214538 0.164261
17539 5 0.378575 0.181916 0.164892
14925 1 0.412987 0.154382 0.167552
17542 5 0.377792 0.24353 0.163505
14921 7 0.423971 0.177128 0.183442
15274 9 0.470628 0.140338 0.185265
14909 2 0.461509 0.190614 0.173886
14981 2 0.460096 0.240908 0.171215
14991 5 0.438529 0.184262 0.170255
14985 4 0.46311 0.21601 0.173917
15275 9 0.45279 0.176073 0.188587
15027 6 0.408867 0.216051 0.184367
14915 3 0.466349 0.182996 0.18588
14956 6 0.41735 0.16467 0.187884
14987 5 0.479513 0.247333 0.163617
14995 7 0.416275 0.204572 0.188393
25311 7 0.00904937 0.107645 0.211994
22648 6 0.125844 0.0103106 0.204854
25294 1 0.00322967 0.101314 0.237734
25225 2 0.052687 0.00313617 0.233671
22684 7 0.0671223 0.0724204 0.194227
25227 3 0.0567984 0.00715866 0.221519
25229 5 0.0295049 0.0116105 0.236252
25517 7 0.0594206 0.0219001 0.207968
25310 7 0.0432147 0.101396 0.201352
25272 7 0.0103263 0.0919547 0.192318
25236 7 0.00253519 0.031608 0.208959
25237 7 0.0174263 0.0460935 0.215999
22671 1 0.101686 0.0401242 0.239588
25472 9 0.0656166 0.077216 0.21469
25300 4 0.0550109 0.102677 0.23025
25270 6 0.0329293 0.111913 0.204087
25240 6 0.0626878 0.0340001 0.201803
25231 3 0.0590597 0.0662779 0.219774
25226 2 0.054991 0.0767899 0.230769
25306 5 0.0315598 0.0699791 0.234608
25201 6 0.00432147 0.036814 0.216385
25232 5 0.0736411 0.0685407 0.23813
22619 1 0.107792 0.102622 0.237232
22717 6 0.109317 0.100369 0.217022
22685 7 0.0665225 0.094973 0.191473
25506 7 0.0595822 0.0477423 0.205881
22759 7 0.0951163 0.0952408 0.213704
22649 6 0.0709519 0.0861636 0.197234
25171 1 0.00450543 0.0389715 0.237273
25230 5 0.0709245 0.0120928 0.240522
22760 7 0.111893 0.113502 0.212554
25309 7 0.040335 0.117838 0.210523
22686 7 0.137993 0.0180323 0.208953
20025 7 0.21597 0.0227695 0.190304
20100 7 0.191244 0.0397989 0.193741
22609 5 0.170367 0.00808533 0.245829
17509 7 0.244725 0.0474692 0.201356
17471 6 0.236775 0.0344775 0.20383
20131 6 0.207663 0.0953674 0.202663
20099 7 0.191718 0.0935362 0.203427
17510 7 0.247283 0.0216864 0.203411
20098 7 0.212795 0.0802681 0.20398
20023 6 0.162224 0.0346037 0.211119
20130 6 0.195284 0.0508272 0.19947
22688 6 0.149057 0.0912498 0.201716
20101 7 0.2086 0.0440564 0.202132
22965 7 0.136939 0.100012 0.206608
20096 6 0.21093 0.0325998 0.222474
20097 6 0.209493 0.112355 0.223354
20133 7 0.209445 0.105098 0.21606
20134 7 0.220211 0.0202225 0.225318
22673 2 0.156476 0.0644807 0.234439
22675 3 0.163223 0.0748269 0.223518
22676 4 0.159199 0.0386912 0.234408
22919 9 0.160905 0.0903313 0.223421
22920 9 0.17765 0.123648 0.22286
22954 7 0.148997 0.0751865 0.205663
20132 7 0.224341 0.120147 0.223796
22678 5 0.174424 0.0741622 0.24145
22677 5 0.132345 0.0700186 0.236807
19990 1 0.205947 0.0387006 0.24234
20119 1 0.204027 0.100844 0.243595
20129 5 0.232721 0.0686564 0.241016
20135 7 0.2179 0.0366696 0.215793
20061 7 0.15977 0.0468995 0.216286
22602 2 0.154007 0.0142474 0.237128
20062 7 0.175063 0.0384907 0.206589
20053 5 0.230951 0.00804258 0.237602
22681 5 0.129192 0.0143239 0.239234
22918 9 0.155363 0.0123048 0.220232
22608 3 0.156275 0.0011977 0.22629
22679 3 0.161793 0.127458 0.223392
17508 6 0.317653 0.0960767 0.1888
17466 6 0.305343 0.0283768 0.189271
17493 7 0.291623 0.0367713 0.19082
20379 9 0.265141 0.0634352 0.192328
17494 7 0.314513 0.034803 0.19462
17473 7 0.322631 0.0877217 0.194739
14960 7 0.339161 0.0592887 0.198928
20366 9 0.270885 0.075628 0.222166
17548 7 0.281275 0.0909417 0.198373
17428 5 0.370022 0.00720879 0.245686
20365 9 0.261726 0.0240535 0.223408
17578 6 0.274676 0.0904197 0.205471
14918 6 0.328475 0.0623255 0.205088
14959 7 0.337334 0.0656711 0.210638
20051 3 0.260849 0.00867477 0.22325
20124 4 0.253573 0.100066 0.235528
20050 2 0.256787 0.0753327 0.237545
17549 7 0.272483 0.106255 0.206856
20056 3 0.264232 0.063747 0.226842
17583 7 0.296585 0.0968705 0.213782
17504 3 0.360044 0.119751 0.229678
17503 6 0.299569 0.0387448 0.222052
17544 6 0.307066 0.0966728 0.220722
17582 7 0.319366 0.0885606 0.218531
17501 5 0.3305 0.0702106 0.238711
20057 5 0.271777 0.0696678 0.246959
17497 2 0.353931 0.0632891 0.235104
17495 1 0.301836 0.0374305 0.242593
17438 1 0.305659 0.100167 0.241904
17500 4 0.355679 0.0368413 0.233713
17499 3 0.356981 0.0739516 0.223678
17813 9 0.363378 0.0886412 0.224798
17456 7 0.28529 0.0452464 0.22167
17457 7 0.308529 0.0433016 0.215772
17502 5 0.370331 0.0703201 0.243798
17421 2 0.352169 0.0136574 0.237622
17506 5 0.328509 0.0125203 0.241745
20054 5 0.270985 0.00801508 0.243069
12751 9 0.501795 0.112779 0.218417
12371 7 0.492572 0.095108 0.194603
14955 6 0.407466 0.0194489 0.190772
15273 9 0.452819 0.0704619 0.191881
14922 7 0.392246 0.0155353 0.191956
14941 7 0.416509 0.0978613 0.194864
14923 7 0.412723 0.0261466 0.197522
15308 7 0.450051 0.0477745 0.201161
12291 6 0.442072 0.0811884 0.203176
14884 6 0.443048 0.0334715 0.205127
12329 7 0.454455 0.0932565 0.20405
15297 7 0.450432 0.0205083 0.200796
12366 6 0.473137 0.112674 0.206194
12328 7 0.444423 0.0706232 0.209187
15303 9 0.391835 0.0446315 0.221641
14868 8 0.434279 0.0333934 0.220018
14905 7 0.413331 0.0944437 0.216931
14951 6 0.406303 0.0885264 0.223208
14875 4 0.446532 0.0554066 0.227579
14904 7 0.418312 0.0786137 0.22491
14874 3 0.40488 0.0349217 0.224653
14870 5 0.446264 0.0108885 0.227567
14954 5 0.430925 0.0717778 0.242549
14869 2 0.453133 0.0714835 0.236304
14945 2 0.45211 0.121993 0.235052
14948 4 0.455654 0.0963015 0.233063
14876 5 0.472907 0.0650061 0.243076
14943 1 0.399884 0.0980341 0.243507
14815 1 0.405847 0.0370054 0.244577
14873 5 0.4714 0.00874613 0.244159
14872 5 0.429019 0.00384732 0.243168
12407 7 0.471954 0.120219 0.19879
12408 7 0.46591 0.123112 0.211337
22719 7 0.116035 0.158552 0.186985
25382 7 0.0155016 0.235877 0.212196
25347 7 0.0181439 0.147569 0.191621
25512 9 0.00593141 0.181348 0.215619
25366 1 0.00436848 0.229448 0.238727
22720 7 0.0967039 0.145847 0.184663
25296 2 0.0548493 0.127709 0.232346
25301 5 0.0321393 0.133051 0.23802
25302 5 0.0725357 0.134005 0.240886
25299 5 0.0541754 0.141528 0.222317
25507 7 0.0547492 0.174733 0.194317
25518 7 0.0584608 0.146967 0.196654
22742 1 0.102704 0.16313 0.238576
25376 5 0.0321638 0.205033 0.236842
25371 4 0.059811 0.229626 0.226965
25343 6 0.0128825 0.22432 0.217637
25314 6 0.0587289 0.162432 0.200269
25304 4 0.051967 0.186846 0.222938
25303 3 0.0146444 0.166886 0.218125
25298 2 0.0551077 0.205011 0.231449
25297 8 0.0451464 0.164302 0.214545
22960 9 0.104248 0.220526 0.211175
22718 6 0.112223 0.161782 0.218724
25242 1 0.00808794 0.164011 0.237287
25305 5 0.0731776 0.197403 0.239098
22751 3 0.115112 0.225205 0.217005
22690 1 0.108583 0.227176 0.236493
22758 7 0.126081 0.156219 0.221307
22757 7 0.110134 0.150696 0.212393
25381 7 0.027806 0.218043 0.219659
20086 8 0.24514 0.15258 0.190579
20406 9 0.202017 0.157205 0.19006
20197 5 0.230738 0.246567 0.240766
22680 5 0.173768 0.133248 0.243074
22754 5 0.134211 0.131656 0.237635
22722 7 0.144849 0.128496 0.200769
22762 6 0.160855 0.21935 0.201725
22966 7 0.177039 0.21343 0.20329
22745 8 0.146314 0.225789 0.215487
20125 5 0.232151 0.134476 0.242035
20169 7 0.207862 0.214748 0.196978
22674 2 0.158162 0.140061 0.234013
20203 6 0.213619 0.20787 0.203602
20166 6 0.18481 0.169353 0.205162
20206 7 0.194571 0.181598 0.206529
22755 6 0.134129 0.136211 0.205075
22721 7 0.142668 0.135334 0.211618
22750 5 0.176706 0.198146 0.242312
20165 6 0.208025 0.235035 0.221075
20207 7 0.213497 0.226772 0.214627
20208 7 0.221885 0.243825 0.222787
22744 2 0.1577 0.190813 0.234381
22747 5 0.153757 0.205066 0.224832
22748 4 0.162649 0.165181 0.231331
22752 4 0.156108 0.248597 0.222833
20190 1 0.202197 0.225335 0.241461
20067 1 0.20946 0.166384 0.241857
22749 5 0.132043 0.190716 0.237948
20202 5 0.234944 0.193109 0.238194
20205 7 0.174361 0.16855 0.210734
22955 7 0.153209 0.207931 0.196737
20170 7 0.230148 0.205652 0.202562
17534 8 0.348036 0.215357 0.189489
20121 2 0.253857 0.125623 0.237575
17546 7 0.293719 0.158916 0.194494
17547 7 0.287324 0.170041 0.184537
17814 9 0.367376 0.12643 0.223616
17854 9 0.308436 0.199878 0.18587
17618 7 0.258239 0.224168 0.207426
17617 7 0.257567 0.222754 0.195395
20368 9 0.251916 0.192703 0.218058
20192 2 0.254166 0.249228 0.236454
20367 9 0.25574 0.154465 0.227789
20123 3 0.253138 0.139124 0.226773
20122 2 0.257925 0.198679 0.23432
17584 6 0.359504 0.21823 0.203803
20127 3 0.261463 0.185778 0.223484
17651 6 0.258038 0.213705 0.201737
17861 7 0.353786 0.232521 0.208107
20136 6 0.260887 0.153181 0.204157
17505 5 0.372267 0.133114 0.248071
20196 4 0.260157 0.224838 0.234447
17577 5 0.331818 0.135124 0.24189
20126 5 0.273326 0.134274 0.243979
20413 7 0.260617 0.167273 0.208883
17580 7 0.293621 0.20774 0.220738
20402 7 0.253689 0.141727 0.210258
17498 2 0.355764 0.137249 0.238827
17581 7 0.315849 0.211875 0.215248
17569 2 0.356019 0.187415 0.236712
17567 1 0.303671 0.162912 0.243751
17515 1 0.307608 0.226002 0.242608
17573 5 0.331917 0.189676 0.239631
17545 6 0.308676 0.215358 0.222003
20128 5 0.274094 0.189789 0.242847
17571 3 0.361507 0.200584 0.226518
17572 4 0.360773 0.161668 0.235715
17575 3 0.3612 0.247372 0.224389
17815 9 0.35826 0.215884 0.226764
17574 5 0.371316 0.195586 0.245265
17850 7 0.357005 0.205636 0.209593
14996 7 0.368777 0.128519 0.201223
15026 6 0.367704 0.135159 0.208362
14953 5 0.472241 0.194102 0.246675
15017 2 0.454948 0.249562 0.235073
14957 7 0.396847 0.150546 0.215863
14994 7 0.39683 0.220613 0.189479
14950 5 0.469158 0.129155 0.243085
15025 5 0.433253 0.195416 0.239258
14947 3 0.454557 0.134609 0.224248
14919 6 0.40511 0.159446 0.222015
14920 7 0.41376 0.171228 0.194544
14949 5 0.430301 0.128386 0.239426
14997 7 0.35156 0.136193 0.209022
14992 6 0.40264 0.218659 0.222096
15031 7 0.386855 0.218472 0.221003
14886 1 0.408113 0.161733 0.242521
15020 4 0.458166 0.224827 0.235196
15030 7 0.407959 0.204883 0.219005
15262 9 0.470186 0.191116 0.221688
22709 2 0.15915 0.248344 0.168437
20041 7 0.301244 0.00177718 0.125575
14862 7 0.464698 0.00440627 0.126912
22669 7 0.210662 0.00137146 0.127537
20049 2 0.254456 -0.000254791 0.234719
17413 7 0.350345 0.00392096 0.117582
25458 9 0.0271145 0.000268909 0.125845
25178 3 0.0196209 0.0472322 0.277909
25245 3 0.0295815 0.0957821 0.278734
25256 7 0.0891413 0.0574957 0.28199
25257 7 0.0901341 0.0823398 0.281707
25288 6 0.0803837 0.0695156 0.279937
25497 9 0.0193845 0.0864192 0.281429
25251 5 0.00743732 0.039172 0.259505
25248 5 0.049185 0.107635 0.261988
25247 5 0.00610114 0.105528 0.260816
25246 4 0.0285043 0.0727686 0.262834
25243 2 0.0277754 0.0978407 0.265942
25224 1 0.0779099 0.0719739 0.259656
25179 5 0.0477954 0.0364734 0.262952
25173 2 0.0266264 0.047778 0.265787
22624 5 0.104664 0.0428118 0.261842
25496 9 0.0328461 0.045522 0.282534
22699 5 0.110027 0.100766 0.257289
24655 7 0.0767561 0.0614261 0.315222
25170 1 0.0708555 0.00913895 0.261509
25184 7 0.0620911 0.0141222 0.287494
22622 3 0.12255 0.0443862 0.280825
22626 3 0.116228 0.0989153 0.277631
25515 7 0.0332947 0.117085 0.292782
22623 4 0.121184 0.00912066 0.269392
22620 2 0.123133 0.0347017 0.269108
24582 7 0.085235 0.00165897 0.312033
25218 6 0.070392 0.00766098 0.281615
22943 9 0.12968 0.0341944 0.285456
22621 2 0.124155 0.107988 0.266517
14330 5 0.441846 0.20592 0.452388
22944 9 0.121949 0.108915 0.283363
19999 4 0.21716 0.0307165 0.278839
19993 2 0.223834 0.0467543 0.270349
20068 2 0.225793 0.0968902 0.272584
20071 4 0.224232 0.0715878 0.273641
22625 5 0.146867 0.0412089 0.265911
22665 6 0.144068 0.00639845 0.303065
22634 7 0.144041 0.0207957 0.306316
22627 5 0.147546 0.0998018 0.264877
22618 1 0.172838 0.0706012 0.263762
20072 5 0.205565 0.102238 0.265053
20070 3 0.221095 0.111082 0.282894
20416 7 0.229339 0.0249022 0.303088
20391 9 0.205648 0.114387 0.283227
20076 5 0.20752 0.0419111 0.261183
19992 8 0.212032 0.00730598 0.286277
22600 1 0.177396 0.0088809 0.265671
19998 3 0.181498 0.00388346 0.28432
20065 6 0.221734 0.00923288 0.301288
20000 5 0.247947 0.0415875 0.267303
20073 5 0.247926 0.104112 0.267831
20409 9 0.169423 0.00580117 0.290419
22631 7 0.212982 0.0838446 0.311443
17448 5 0.350387 0.0984034 0.2685
17440 8 0.309122 0.0683961 0.287689
17446 3 0.278307 0.0692765 0.286231
17857 9 0.267842 0.0739031 0.292776
17513 6 0.326065 0.0676078 0.300839
17863 7 0.319474 0.0733219 0.308324
17864 7 0.3343 0.0528187 0.303352
20005 7 0.258227 0.0252744 0.280365
20040 6 0.27233 0.0186848 0.283685
20004 7 0.280076 0.0323245 0.285413
20082 7 0.256402 0.12486 0.287702
17442 5 0.314389 0.046631 0.27868
17447 4 0.316492 0.0908493 0.27856
17443 4 0.319926 0.00747847 0.272591
17439 2 0.32286 0.0318395 0.269398
17441 2 0.326303 0.105813 0.270172
20048 1 0.278856 0.0721629 0.266807
19989 1 0.271921 0.0109956 0.263778
17445 5 0.346659 0.0373991 0.266994
17524 5 0.311906 0.101439 0.260464
17444 5 0.30673 0.0369567 0.26034
17379 7 0.376855 0.00942603 0.294578
17453 7 0.36842 0.119515 0.306482
19715 9 0.24224 0.110863 0.314537
17437 1 0.374092 0.0671628 0.265267
20007 7 0.290681 0.00191901 0.298619
22325 7 0.114833 0.155708 0.497689
15305 9 0.375074 0.125678 0.292777
14903 7 0.468195 0.094613 0.306519
14935 6 0.481527 0.0919278 0.301914
17454 7 0.422382 0.0619638 0.300874
17487 6 0.419835 0.078151 0.300745
17455 7 0.425378 0.0810218 0.29365
14609 9 0.434302 0.0900762 0.3127
14827 7 0.479278 0.0722427 0.289329
14860 6 0.480988 0.0621171 0.283345
15286 9 0.425628 0.0131 0.28281
14828 7 0.46831 0.0525767 0.283514
14890 5 0.422532 0.107131 0.277775
14822 3 0.425118 0.0289785 0.284053
17412 6 0.381665 0.00976379 0.286992
17380 7 0.39748 0.0149586 0.286804
14902 7 0.486645 0.106084 0.299563
14891 4 0.430882 0.0672221 0.274366
14817 2 0.428837 0.0412526 0.273222
14887 2 0.428336 0.0909717 0.268773
14823 5 0.450397 0.0333521 0.268525
17418 1 0.378647 0.00599456 0.266247
14893 5 0.451501 0.0994297 0.266307
14897 5 0.409346 0.036322 0.265663
14892 5 0.409154 0.094385 0.261089
14866 1 0.480009 0.065699 0.262945
14814 1 0.474256 0.00411928 0.266078
16853 7 0.401714 0.0192071 0.31208
14894 3 0.385142 0.128107 0.285888
15312 7 0.438538 0.124754 0.304026
16851 7 0.411839 0.12009 0.314646
24652 7 0.0924406 0.15891 0.310867
25254 7 0.089133 0.149414 0.284481
25289 6 0.077096 0.139001 0.281595
25255 7 0.0661071 0.139439 0.287405
25504 7 0.0273523 0.144039 0.292042
25241 1 0.0753961 0.135009 0.261451
25313 6 0.0351087 0.132193 0.296966
25498 9 0.0367475 0.159752 0.279733
25249 3 0.021997 0.163987 0.276469
25319 3 0.0241353 0.235552 0.277409
25330 7 0.0949695 0.192163 0.279191
25331 7 0.0922358 0.217398 0.279035
25360 6 0.0840995 0.204057 0.27772
25322 5 0.0508443 0.232766 0.261489
25321 5 0.00958081 0.235105 0.258745
25320 4 0.0259238 0.200265 0.266353
25317 2 0.0275093 0.226085 0.265755
25295 1 0.0798651 0.197283 0.257761
25250 5 0.0503034 0.168587 0.262091
25244 2 0.0271465 0.175019 0.265442
22695 5 0.108458 0.164937 0.257921
22773 5 0.108713 0.227735 0.257649
1996 7 0.0523194 0.242286 0.28903
1997 7 0.0571466 0.237038 0.301297
2031 6 0.0613583 0.246122 0.294798
25325 5 0.0116784 0.165638 0.256813
22697 3 0.120834 0.228748 0.278058
22693 3 0.116526 0.168294 0.277479
22319 9 0.0905342 0.193137 0.309609
22031 7 0.193811 0.0138607 0.312187
22694 4 0.124878 0.133472 0.267573
22691 2 0.12473 0.158936 0.266381
22946 9 0.125601 0.240746 0.282998
22945 9 0.128683 0.175445 0.281687
22952 7 0.128165 0.207898 0.290922
22088 8 0.133232 0.197109 0.310769
22705 7 0.188922 0.150724 0.285385
22761 6 0.140232 0.199458 0.295824
22963 7 0.156357 0.20515 0.293483
22672 1 0.17771 0.134937 0.262808
22736 6 0.177377 0.140012 0.283668
22030 7 0.200309 0.130152 0.305399
22704 7 0.165857 0.143616 0.288826
20142 4 0.226238 0.197013 0.270806
20147 5 0.208928 0.167404 0.262177
22696 5 0.14776 0.168616 0.264437
20074 3 0.218806 0.160337 0.281382
20141 3 0.220049 0.232187 0.280887
20393 9 0.208409 0.243925 0.280321
22702 7 0.199033 0.207123 0.282493
22703 7 0.186512 0.188775 0.288838
22737 6 0.18359 0.202292 0.284541
22692 2 0.124654 0.237944 0.266162
22062 6 0.23391 0.193852 0.29764
22102 7 0.232091 0.182369 0.292359
22103 7 0.234406 0.207263 0.293574
22100 7 0.197837 0.205259 0.306547
19716 9 0.238203 0.17458 0.309892
20069 2 0.226462 0.171861 0.27076
22698 5 0.149183 0.23163 0.264278
22689 1 0.173961 0.198093 0.263831
20392 9 0.222202 0.144395 0.281223
20139 2 0.226795 0.222278 0.270281
20143 5 0.209392 0.226409 0.261781
22029 7 0.215892 0.144646 0.312628
20075 5 0.248545 0.164509 0.267076
20144 5 0.249524 0.229394 0.266619
22101 7 0.189087 0.222387 0.314311
20400 7 0.241494 0.246486 0.291804
17488 6 0.352738 0.118646 0.305734
20113 6 0.271452 0.131515 0.286999
19479 7 0.290672 0.146911 0.306036
20081 7 0.279275 0.13121 0.294103
19480 7 0.275214 0.152569 0.315914
20066 1 0.274341 0.133952 0.265729
17517 2 0.329637 0.231902 0.271102
17516 2 0.326364 0.155866 0.272782
17452 7 0.347621 0.131761 0.309363
17518 3 0.321651 0.162782 0.284704
17522 3 0.320876 0.224839 0.282263
17839 9 0.31517 0.15054 0.288714
17840 9 0.3251 0.234965 0.288065
20079 7 0.293356 0.21062 0.287125
20080 7 0.298195 0.186067 0.285776
20114 6 0.285176 0.196875 0.284612
17164 9 0.34311 0.240014 0.309672
19440 6 0.307195 0.19861 0.312427
19478 7 0.300724 0.20382 0.305737
19477 7 0.320618 0.208695 0.311834
17519 4 0.323593 0.130571 0.273448
17521 5 0.350576 0.161785 0.269164
20120 1 0.279926 0.19577 0.264202
17523 5 0.351954 0.221638 0.269299
17520 5 0.309609 0.164384 0.264647
17595 5 0.312792 0.224968 0.262645
16928 7 0.378219 0.21214 0.313694
19439 6 0.286659 0.141317 0.313297
17514 1 0.375379 0.193265 0.265983
14961 6 0.438204 0.136276 0.297486
14972 5 0.413311 0.167883 0.259576
17529 7 0.386134 0.190224 0.293228
17561 6 0.388597 0.192582 0.28539
14896 5 0.451276 0.160583 0.266466
14968 5 0.408022 0.228498 0.264856
14888 8 0.416219 0.129806 0.28648
15311 7 0.434693 0.15288 0.300989
17530 7 0.40449 0.197308 0.284552
12753 9 0.471486 0.194193 0.291423
14977 7 0.435157 0.209888 0.295675
14978 7 0.427313 0.194409 0.304303
15009 6 0.440206 0.202813 0.302286
14611 9 0.445356 0.225656 0.31042
16887 6 0.386281 0.198445 0.312812
15287 9 0.4095 0.233304 0.28489
14966 3 0.424045 0.226434 0.283994
12342 3 0.482186 0.191043 0.284821
14895 4 0.419932 0.151827 0.27744
14964 2 0.427095 0.218401 0.272096