ITEM: TIMESTEP
179000
ITEM: NUMBER OF ATOMS
25520
ITEM: BOX BOUNDS pp pp pp
-3.8656126287883602e-01 6.0085104852878040e+01
-1.9421789080826182e+00 5.9112464182084189e+01
-1.2639485389544262e+01 1.1191521779554836e+02
ITEM: ATOMS id type xs ys zs
25182 6 0.0887914 0.0297248 0.152901
25292 7 0.098299 0.0819965 0.144925
25252 6 0.101184 0.0804615 0.152675
25214 3 0.0350698 0.0456326 0.162598
25287 5 0.0337448 0.0596161 0.180367
25283 5 0.0703387 0.117833 0.172125
25282 5 0.0291401 0.11887 0.17723
25281 4 0.0426239 0.0882555 0.166293
25277 2 0.0463595 0.112496 0.168649
25215 5 0.0699514 0.0563839 0.172219
25209 2 0.0460259 0.0631806 0.170058
25188 1 0.102137 0.0886919 0.17222
25458 9 0.0444317 0.0317643 0.162947
25206 1 0.0957178 0.0272399 0.172888
25220 7 0.0966232 0.0354313 0.146577
25219 7 0.0805043 0.0429254 0.154828
2433 1 0.00415187 0.0250999 0.177055
25293 7 0.115842 0.0718675 0.152468
22735 5 0.1295 0.120874 0.173479
22660 5 0.133614 0.0595609 0.172446
22905 9 0.149648 0.0523884 0.147391
22662 3 0.139821 0.114605 0.154254
22658 3 0.145543 0.0608113 0.153299
22656 2 0.151499 0.0505756 0.164492
20108 5 0.233463 0.120427 0.171018
20112 5 0.236067 0.0616525 0.174215
22663 5 0.17118 0.115539 0.168289
22654 1 0.198707 0.0876411 0.170107
22661 5 0.175177 0.0563194 0.167856
22669 7 0.220645 0.029832 0.151806
22659 4 0.14686 0.0260144 0.163883
22563 1 0.204818 0.0252698 0.172652
22629 6 0.20504 0.0267925 0.152297
22670 7 0.199364 0.0274151 0.145332
20036 3 0.242447 0.0513574 0.155113
22906 9 0.135999 0.0990098 0.153342
20031 2 0.252426 0.0648236 0.165082
20107 4 0.252683 0.0898837 0.162166
20104 2 0.252554 0.114951 0.163107
20352 9 0.254125 0.0418212 0.153052
20118 7 0.322885 0.0948559 0.146376
20117 7 0.302406 0.0817043 0.144881
20077 6 0.314795 0.0819092 0.149814
17480 3 0.350432 0.0475308 0.152132
17799 9 0.337165 0.0552584 0.150216
17484 3 0.347621 0.119026 0.152226
17478 2 0.352559 0.0476335 0.164737
17560 5 0.331363 0.12521 0.170133
20109 5 0.276018 0.120687 0.16711
17482 5 0.334541 0.0582809 0.171728
20037 5 0.276215 0.056943 0.167804
20011 1 0.305607 0.0888971 0.170064
20028 1 0.29964 0.0259949 0.171118
17481 4 0.353954 0.023718 0.167461
20003 6 0.305545 0.0207246 0.151255
17413 7 0.367311 0.0271311 0.144217
17378 6 0.376647 0.016386 0.140631
17414 7 0.369966 0.00273339 0.143372
20041 7 0.319381 0.0223351 0.146988
20042 7 0.295833 0.0150963 0.14588
17485 5 0.372641 0.11985 0.167091
17483 5 0.375512 0.0578289 0.168395
17490 7 0.425786 0.07994 0.15302
17489 7 0.409688 0.0820442 0.143784
17451 6 0.410418 0.0839444 0.151784
14856 3 0.446486 0.0508584 0.154706
15246 9 0.456726 0.0389737 0.15321
14929 4 0.448769 0.0864596 0.165177
14926 2 0.451874 0.110998 0.166341
14851 2 0.451699 0.0616328 0.16603
14931 5 0.475399 0.115274 0.170249
14857 5 0.475775 0.0580307 0.169101
17476 1 0.396369 0.0892752 0.170692
14934 5 0.434582 0.0522017 0.174045
14930 5 0.433905 0.119779 0.173559
17384 1 0.404041 0.0250545 0.173096
14848 1 0.498946 0.0226113 0.172555
17450 6 0.41317 0.0194914 0.153254
17491 7 0.422648 0.0311683 0.15133
17492 7 0.401943 0.0186298 0.147403
14928 3 0.450758 0.119164 0.154034
25299 5 0.0585391 0.156213 0.250196
14995 7 0.410693 0.229889 0.214156
25284 3 0.000736622 0.157789 0.15699
25280 5 0.0395929 0.129164 0.159995
25291 7 0.104122 0.159007 0.147293
25290 7 0.0784064 0.155193 0.147281
2033 7 0.0487309 0.170482 0.137062
1995 6 0.0400601 0.154814 0.139106
25253 6 0.0914045 0.155335 0.152343
2032 7 0.0281848 0.153157 0.133087
25275 1 0.0958635 0.150613 0.172893
25278 8 0.0305337 0.154331 0.153886
22957 9 0.0885273 0.216404 0.151718
22732 3 0.101464 0.213323 0.156736
25285 4 0.0408781 0.173585 0.163261
25359 5 0.0295275 0.184889 0.180868
25356 5 0.0721632 0.245451 0.172908
25354 4 0.0482725 0.213815 0.168326
25351 2 0.0485865 0.239083 0.169746
25286 5 0.0712528 0.18216 0.174813
25279 2 0.047351 0.189522 0.171952
25259 1 0.101959 0.215806 0.17483
25355 5 0.0314385 0.246745 0.178188
25433 7 0.0631155 0.194787 0.142441
25394 6 0.0499174 0.202599 0.143191
25432 7 0.047334 0.203567 0.151165
2103 7 0.00299007 0.208334 0.150835
14941 7 0.408882 0.125792 0.212706
1962 7 0.120594 0.224243 0.13255
2065 6 0.00188 0.217972 0.156783
2104 7 0.0158176 0.226041 0.158228
20353 9 0.248225 0.143832 0.153419
22657 2 0.148553 0.125389 0.165104
1927 6 0.134367 0.227412 0.137729
22668 7 0.130773 0.140727 0.142973
22630 6 0.128099 0.154805 0.140308
1963 7 0.148951 0.221356 0.134095
22726 8 0.13102 0.215118 0.152394
22730 5 0.130594 0.181488 0.175936
22740 7 0.205826 0.138574 0.14734
22667 7 0.138353 0.163989 0.143926
22700 6 0.202511 0.15215 0.150322
22636 1 0.202419 0.151897 0.170688
22729 4 0.148325 0.150862 0.163777
22733 4 0.136963 0.235961 0.161842
20188 7 0.188378 0.19694 0.151405
20189 7 0.210033 0.201005 0.146849
22741 7 0.217109 0.159204 0.150566
20148 6 0.200489 0.207153 0.152045
22728 5 0.142099 0.191896 0.159467
20110 3 0.246639 0.175628 0.155048
22725 2 0.147803 0.174971 0.16772
20178 5 0.232565 0.244517 0.173421
20183 5 0.233071 0.18414 0.173974
22723 1 0.196198 0.214153 0.172496
22731 5 0.171546 0.180546 0.170998
22734 5 0.173298 0.243871 0.170518
20177 4 0.249862 0.215268 0.161731
20173 2 0.249786 0.240446 0.164567
17479 2 0.350909 0.130385 0.163096
17800 9 0.345079 0.129245 0.146484
20106 3 0.244695 0.128014 0.152681
20105 2 0.250549 0.190456 0.165144
20354 9 0.248665 0.185256 0.148658
17555 4 0.350543 0.155408 0.161716
20102 1 0.298336 0.151517 0.170945
17554 3 0.349903 0.192535 0.152723
17801 9 0.342133 0.206211 0.153287
17558 3 0.338662 0.236714 0.153662
17552 2 0.350122 0.180903 0.163672
17556 5 0.328645 0.188324 0.168899
20111 5 0.273679 0.184026 0.169625
20084 1 0.302602 0.21637 0.171459
17631 5 0.33344 0.247036 0.172374
17802 9 0.347819 0.237991 0.147325
20179 5 0.272529 0.248201 0.168673
17559 5 0.37334 0.243337 0.165996
17557 5 0.372539 0.186653 0.169023
15247 9 0.438127 0.129233 0.15368
17564 7 0.377625 0.203907 0.147677
17563 7 0.390241 0.226758 0.146452
14940 7 0.475625 0.134789 0.149333
14898 6 0.488904 0.144413 0.150236
17566 7 0.409078 0.142694 0.146335
17565 7 0.421118 0.162094 0.151126
17525 6 0.411546 0.150233 0.152823
14939 7 0.480682 0.158143 0.151609
17459 1 0.401555 0.15229 0.170844
17526 6 0.391904 0.210429 0.147848
14899 6 0.432652 0.204276 0.137595
14938 7 0.418343 0.20343 0.139739
14937 7 0.436779 0.218911 0.138787
15248 9 0.44508 0.189751 0.147037
15002 3 0.446542 0.241204 0.150276
14932 3 0.449117 0.176417 0.152005
15000 2 0.452536 0.235708 0.161736
15003 4 0.456727 0.210837 0.163012
14927 2 0.452672 0.185682 0.163485
15005 5 0.474714 0.244714 0.164447
14933 5 0.475511 0.178235 0.167562
15004 5 0.434585 0.242796 0.169661
17550 1 0.399472 0.213006 0.168776
15008 5 0.433365 0.180836 0.171001
14908 2 0.479612 0.144316 0.200324
2509 9 0.00135668 0.142371 0.215052
25227 3 0.0674203 0.0306737 0.250028
25205 7 0.0486013 -0.00204251 0.220826
25195 5 0.0980387 0.0325756 0.193619
25198 5 0.0965603 0.0913433 0.190984
22613 7 0.118827 0.00305827 0.240944
25471 9 0.0713962 0.0196906 0.244514
25268 5 0.0560394 0.0923428 0.196102
25258 1 0.0248864 0.119007 0.197463
25207 1 0.030447 0.0589406 0.199476
25191 2 0.0798711 0.095973 0.19976
25263 4 0.0827225 0.120333 0.202656
25197 4 0.0817119 0.0829322 0.209976
25192 5 0.077978 0.0392682 0.210936
25196 3 0.0405202 0.0637962 0.218237
25190 8 0.0709691 0.0624459 0.219111
25510 9 0.0310179 0.072992 0.223766
22684 7 0.111152 0.105412 0.227362
25517 7 0.0778639 0.0637047 0.239456
25240 6 0.0882616 0.0622861 0.232397
22685 7 0.0903115 0.106803 0.21965
25506 7 0.100747 0.0731084 0.233613
22649 6 0.0968563 0.114799 0.226046
25194 5 0.0586937 0.0295249 0.197121
25189 2 0.0813017 0.0235771 0.201735
25201 6 0.0147473 0.0518864 0.244076
25472 9 0.0646649 0.101074 0.245339
22686 7 0.112796 0.0399026 0.232513
22650 7 0.11148 0.0776613 0.210032
25237 7 0.0223445 0.0535004 0.237298
25204 7 0.0489335 0.019206 0.215825
25234 6 0.0376312 0.00902656 0.217786
17436 6 0.363934 0.00267436 0.22973
25236 7 0.00867558 0.0365265 0.243584
25310 7 0.0690606 0.125861 0.230479
12353 7 0.493937 0.199514 0.240516
22648 6 0.127122 0.034859 0.230553
25270 6 0.0555779 0.123552 0.234253
14920 7 0.433801 0.18824 0.218752
22653 7 0.127364 0.0143275 0.222108
20009 7 0.198448 0.00710407 0.241636
22683 6 0.125342 0.0693523 0.212568
22635 1 0.127177 0.0601268 0.191959
20135 7 0.209409 0.0599491 0.239714
22572 5 0.197115 0.0268282 0.191051
22643 5 0.199574 0.0885084 0.190398
22687 7 0.130223 0.0460517 0.225144
22651 7 0.12705 0.076084 0.21958
22931 9 0.179061 0.0215329 0.216517
20083 1 0.226218 0.118501 0.189818
22655 1 0.131248 0.119999 0.193188
20029 1 0.232261 0.0593826 0.193181
22642 5 0.158286 0.0816195 0.193302
22918 9 0.162286 0.0204496 0.247237
20063 7 0.192216 0.0705594 0.220073
22637 2 0.181237 0.0817406 0.198438
22641 4 0.182303 0.0575772 0.202373
22565 2 0.180915 0.0320671 0.200411
22640 5 0.175638 0.0990247 0.20724
20024 7 0.242431 0.0513198 0.218364
20060 6 0.239509 0.0618508 0.212393
20023 6 0.132755 0.0903829 0.233816
20061 7 0.145326 0.0924265 0.228829
20062 7 0.140112 0.0922166 0.240366
20022 6 0.200133 0.0679788 0.226606
20064 7 0.21275 0.0613508 0.224263
22647 5 0.156792 0.0245747 0.197066
20134 7 0.189908 0.0489116 0.246681
20096 6 0.205291 0.0554234 0.247447
20133 7 0.20341 0.105359 0.243889
22571 3 0.187837 0.0173243 0.209848
22965 7 0.166693 0.11364 0.235777
22612 6 0.178296 0.0271031 0.230111
17509 7 0.241451 0.012752 0.223083
22577 7 0.18592 0.0408924 0.231073
20131 6 0.231687 0.123975 0.209462
20099 7 0.234172 0.118723 0.216707
20097 6 0.211578 0.115907 0.248175
22576 7 0.161642 0.030374 0.231637
22958 9 0.125308 0.132633 0.215667
22638 8 0.167895 0.121728 0.215028
22644 3 0.137372 0.122542 0.213058
20132 7 0.224449 0.114855 0.243661
17510 7 0.252857 0.0218874 0.232155
22688 6 0.177934 0.119619 0.229869
20025 7 0.253774 0.0697968 0.212005
20130 6 0.254314 0.114235 0.233939
17471 6 0.251664 0.0244043 0.224144
20051 3 0.263925 0.0339514 0.24684
20366 9 0.257387 0.0932801 0.244629
20016 5 0.252323 0.0269658 0.195479
20017 5 0.294753 0.0272501 0.189982
17475 7 0.310848 0.00809477 0.214211
20020 5 0.299784 0.0880315 0.191353
17477 1 0.332038 0.122078 0.192221
17458 1 0.327544 0.0580649 0.192383
20095 5 0.258236 0.0890768 0.193736
17464 5 0.355864 0.0910025 0.194408
20013 2 0.28067 0.0946762 0.198359
20379 9 0.295128 0.0749908 0.210742
20089 4 0.282714 0.120136 0.199607
20019 3 0.281326 0.0842978 0.209657
20378 9 0.274568 0.0251453 0.214614
17466 6 0.319613 0.0604677 0.21283
17493 7 0.316154 0.0467696 0.215149
17494 7 0.322145 0.0686495 0.220316
17473 7 0.348978 0.10864 0.213657
14960 7 0.351733 0.0805113 0.222418
17548 7 0.294541 0.11361 0.216686
14918 6 0.340568 0.0836902 0.227632
14959 7 0.348503 0.0842974 0.234582
17469 5 0.354085 0.0225231 0.197541
17456 7 0.313033 0.0688465 0.240366
17457 7 0.289425 0.0674793 0.244772
20014 3 0.286148 0.0239882 0.209453
20012 2 0.276519 0.0188695 0.19809
17503 6 0.304392 0.0639534 0.246464
17499 3 0.363943 0.0944245 0.247175
17582 7 0.332093 0.110854 0.240662
17860 7 0.359631 0.0153361 0.224633
17508 6 0.338517 0.121511 0.212787
20101 7 0.263184 0.113825 0.227002
17583 7 0.312185 0.122027 0.237091
20100 7 0.261763 0.125721 0.237773
20365 9 0.266166 0.049044 0.24832
17460 2 0.377626 0.0828897 0.199191
17462 3 0.379889 0.091456 0.210909
17578 6 0.293922 0.125019 0.222757
17472 7 0.331232 0.120563 0.219741
25457 9 0.0609152 0.00784373 0.155529
14910 3 0.484957 0.155874 0.210876
17813 9 0.37482 0.106648 0.247381
17463 4 0.375933 0.0583361 0.198663
17386 2 0.376682 0.0334011 0.20037
17825 9 0.39058 0.0184696 0.214309
17465 5 0.395275 0.0908725 0.191648
25200 6 0.00879669 0.0075743 0.246275
17391 3 0.380625 0.0307754 0.212517
14906 1 0.42737 0.118343 0.191827
14838 5 0.493235 0.0250897 0.191738
17392 5 0.395427 0.0250785 0.193401
17826 9 0.394762 0.0977927 0.212334
14849 1 0.430716 0.0586851 0.194098
14917 5 0.457705 0.0898448 0.196648
14837 5 0.454093 0.0280511 0.196544
14911 4 0.483847 0.119303 0.200859
14834 2 0.481113 0.0943931 0.201321
14839 3 0.482644 0.087084 0.213012
14955 6 0.416698 0.0593719 0.21389
15273 9 0.485417 0.099156 0.217986
14922 7 0.427763 0.0574757 0.219728
14923 7 0.402052 0.0555572 0.21658
15308 7 0.462003 0.0679635 0.223071
12291 6 0.439489 0.125129 0.232641
14884 6 0.454218 0.0540007 0.226731
15297 7 0.464206 0.0410645 0.223557
15303 9 0.405329 0.0583015 0.240551
14868 8 0.447966 0.0559311 0.242155
14835 3 0.482346 0.0253034 0.212099
14874 3 0.417932 0.0591447 0.246162
14833 2 0.476294 0.018473 0.199944
15272 9 0.488264 0.0122217 0.215688
14847 7 0.446724 0.0117078 0.236839
12328 7 0.449031 0.112381 0.234809
14951 6 0.404203 0.123674 0.245709
14942 7 0.430481 0.117698 0.218302
12408 7 0.478324 0.126805 0.233033
14875 4 0.458787 0.0795222 0.24882
12366 6 0.488735 0.124392 0.227318
14904 7 0.414495 0.123769 0.239235
14914 6 0.42316 0.116598 0.211251
22807 5 0.134942 0.246953 0.179936
22760 7 0.109363 0.128702 0.239838
22717 6 0.114918 0.13658 0.246149
25381 7 0.0118681 0.240226 0.237648
25272 7 0.0398756 0.124771 0.223816
22960 9 0.109858 0.24633 0.240377
25343 6 0.00273713 0.240295 0.243903
25345 7 0.0112286 0.229308 0.218428
22751 3 0.122671 0.247918 0.245951
25308 6 0.032722 0.128339 0.216652
25267 5 0.0952762 0.214917 0.194304
25309 7 0.0531012 0.137044 0.2392
25265 5 0.0970597 0.153129 0.194428
25271 7 0.0450785 0.136129 0.211853
25348 7 0.00177865 0.184345 0.220042
25484 9 0.0830839 0.139308 0.219044
25347 7 0.0253994 0.1812 0.225445
25512 9 0.0100176 0.188516 0.239177
22791 6 0.0738756 0.246277 0.230149
25303 3 0.0207028 0.186444 0.245976
25260 2 0.0795009 0.145741 0.202752
25264 5 0.0550379 0.150372 0.200566
25332 1 0.0250663 0.243481 0.198726
25276 1 0.0292075 0.18313 0.198518
25342 5 0.0555325 0.214015 0.200268
25337 4 0.0805522 0.245463 0.203636
25261 2 0.0790432 0.220556 0.202954
25266 3 0.0836736 0.213232 0.214974
25262 3 0.0846075 0.152925 0.215062
25485 9 0.083007 0.226596 0.219783
22720 7 0.109477 0.187532 0.218133
25377 6 0.018128 0.182702 0.21824
25507 7 0.0655625 0.200143 0.224788
25518 7 0.0680678 0.173848 0.224721
25314 6 0.0581485 0.186346 0.228397
25297 8 0.0512021 0.181848 0.243518
22757 7 0.103379 0.166632 0.246168
22758 7 0.124609 0.180722 0.243575
22718 6 0.109545 0.181477 0.246607
25378 6 0.0231228 0.24188 0.219084
14957 7 0.431843 0.175177 0.239958
22830 7 0.0596484 0.241242 0.22904
22759 7 0.131106 0.139617 0.244629
22825 6 0.123456 0.244307 0.218305
14994 7 0.434396 0.222414 0.213229
22796 7 0.108364 0.240087 0.219821
22679 3 0.164822 0.144545 0.248531
20098 7 0.240243 0.137334 0.209191
22954 7 0.182239 0.134936 0.23339
22706 1 0.125859 0.182187 0.194555
22756 6 0.12463 0.187194 0.215638
22719 7 0.133174 0.185425 0.222071
22646 5 0.196131 0.152754 0.188978
22713 5 0.197148 0.214649 0.193027
20103 1 0.232237 0.18116 0.193491
20154 1 0.225548 0.246054 0.192742
22716 5 0.155914 0.14891 0.191482
22724 1 0.131762 0.24407 0.19825
22722 7 0.153109 0.201865 0.238233
22645 4 0.177825 0.145544 0.208141
22712 5 0.1564 0.214945 0.196943
22639 2 0.177148 0.156624 0.197014
22708 2 0.178724 0.206891 0.200405
22711 4 0.1772 0.181293 0.19938
22710 3 0.180792 0.212121 0.212344
22932 9 0.183155 0.197314 0.21643
20167 7 0.207458 0.23035 0.211184
20204 6 0.218485 0.242313 0.213113
20092 3 0.238326 0.177619 0.211775
22721 7 0.157684 0.179051 0.241275
20406 9 0.225462 0.17199 0.217178
22966 7 0.168482 0.231728 0.224699
22745 8 0.1533 0.248522 0.242856
20166 6 0.192143 0.17678 0.22311
20206 7 0.177928 0.180501 0.227164
22755 6 0.150335 0.186541 0.235959
20205 7 0.187754 0.166403 0.217313
22762 6 0.170154 0.245979 0.229677
20169 7 0.24874 0.237129 0.227465
14956 6 0.440427 0.182252 0.212035
22920 9 0.179113 0.136357 0.248135
14979 1 0.427187 0.240052 0.190805
17544 6 0.320217 0.120891 0.244027
17504 3 0.366866 0.149569 0.248434
17545 6 0.325609 0.248249 0.243934
20094 5 0.295352 0.21341 0.19091
20091 5 0.297898 0.151603 0.190051
20164 5 0.255078 0.219689 0.194114
17827 9 0.372506 0.137905 0.212773
20090 5 0.256565 0.146938 0.192586
17538 5 0.35753 0.210659 0.192608
17551 1 0.330714 0.24406 0.192709
17531 1 0.326644 0.183724 0.191802
17549 7 0.294096 0.138476 0.218159
20203 6 0.263466 0.231197 0.228303
20170 7 0.268655 0.226959 0.221237
20368 9 0.266978 0.215892 0.241147
17543 5 0.357041 0.153474 0.195575
17814 9 0.353162 0.145988 0.245071
20085 2 0.279017 0.144254 0.197107
20086 8 0.2675 0.180703 0.216153
20087 2 0.278061 0.220484 0.199568
20159 4 0.28008 0.245746 0.202738
20088 5 0.27624 0.16018 0.206504
20093 4 0.274883 0.204581 0.209391
17547 7 0.329069 0.151553 0.212874
17540 3 0.334131 0.243634 0.212676
17579 6 0.322439 0.165118 0.21032
17534 8 0.36563 0.242345 0.214826
17546 7 0.307367 0.162257 0.207947
20136 6 0.283291 0.176708 0.230011
20413 7 0.28009 0.187752 0.23642
20402 7 0.279977 0.160533 0.233328
20127 3 0.265872 0.205892 0.246777
17571 3 0.361536 0.213409 0.245648
17580 7 0.336117 0.236053 0.245259
17815 9 0.36359 0.200149 0.241519
20367 9 0.261825 0.166281 0.245861
20123 3 0.263324 0.151525 0.247382
17467 3 0.3845 0.14616 0.210241
17537 4 0.383163 0.182889 0.199406
15261 9 0.476232 0.164359 0.244219
14915 3 0.487681 0.204908 0.207635
15262 9 0.452573 0.213993 0.242747
15027 6 0.425274 0.235508 0.211426
14913 5 0.496844 0.151415 0.192022
17850 7 0.378357 0.230053 0.233582
17539 5 0.400321 0.213091 0.190587
14947 3 0.46207 0.157108 0.245567
14905 7 0.391346 0.132865 0.244084
14925 1 0.431741 0.179805 0.191759
14919 6 0.419838 0.184585 0.242015
14997 7 0.382739 0.194737 0.218021
17533 2 0.380218 0.207083 0.197219
14996 7 0.385916 0.172537 0.222689
15026 6 0.386395 0.187673 0.224923
17584 6 0.376664 0.246167 0.229357
14958 7 0.408114 0.182908 0.236874
17468 5 0.396824 0.147915 0.191228
14909 2 0.479486 0.216321 0.196587
14952 3 0.467371 0.214848 0.246205
17461 2 0.380586 0.157754 0.199294
12329 7 0.446319 0.137958 0.235474
14991 5 0.458718 0.206011 0.191625
14921 7 0.450637 0.169709 0.214037
14912 5 0.456925 0.148343 0.195614
14985 4 0.475369 0.242065 0.198101
17536 5 0.377079 0.22022 0.207172
12407 7 0.487092 0.137177 0.222751
14992 6 0.419396 0.249408 0.243997
14916 5 0.497973 0.21303 0.188393
15275 9 0.475927 0.195349 0.210342
17854 9 0.323623 0.238299 0.218392
15030 7 0.416243 0.248086 0.236306
15245 9 0.436534 0.00127099 0.156335
25210 3 0.0478807 0.00117291 0.157429
22583 2 0.149522 0.00181309 0.167702
22682 6 0.127358 0.00123716 0.216639
14870 5 0.457313 0.0353461 0.249758
25178 3 0.0227911 0.0614994 0.304501
25245 3 0.0273664 0.116586 0.305599
25251 5 0.0166825 0.0562998 0.284892
25246 4 0.0317096 0.0904227 0.290128
25243 2 0.0330346 0.115028 0.293266
25224 1 0.0866396 0.089124 0.289671
25179 5 0.057041 0.0556917 0.292537
25173 2 0.0336501 0.065749 0.293114
22624 5 0.11651 0.0613582 0.289008
22699 5 0.116323 0.119285 0.285097
25170 1 0.082656 0.0275329 0.289414
25232 5 0.0800248 0.0898943 0.269585
25230 5 0.0814143 0.0288447 0.269416
22671 1 0.110395 0.0599614 0.267688
25171 1 0.0155537 0.057579 0.264103
25229 5 0.0416387 0.0266493 0.264926
25294 1 0.00967866 0.121524 0.264831
25306 5 0.0396955 0.0880858 0.26491
25226 2 0.0617425 0.0977202 0.261883
25225 2 0.0646537 0.0192682 0.261183
25496 9 0.0240094 0.046462 0.3065
25288 6 0.0975075 0.0906451 0.309616
25218 6 0.0875273 0.022744 0.309962
25497 9 0.0190187 0.104362 0.30771
25495 9 0.0196777 0.00985452 0.306375
22619 1 0.11634 0.123644 0.265137
25300 4 0.0600039 0.122995 0.26193
25174 3 0.0334852 0.00226869 0.306246
25247 5 0.0147621 0.126671 0.286899
25257 7 0.107359 0.103769 0.30919
25248 5 0.0569141 0.123815 0.291804
25256 7 0.107525 0.0783271 0.310982
25184 7 0.102389 0.0229161 0.313048
25231 3 0.0694697 0.0888942 0.250233
22919 9 0.171296 0.111089 0.25051
22622 3 0.131967 0.061101 0.308101
22623 4 0.136852 0.0281154 0.297714
22681 5 0.139567 0.0307381 0.264622
22620 2 0.136345 0.0534641 0.296226
19999 4 0.227999 0.0497084 0.301899
19993 2 0.234546 0.0662127 0.293067
20068 2 0.235542 0.115968 0.296406
20071 4 0.234126 0.0908312 0.297218
22625 5 0.159211 0.0606509 0.292819
22627 5 0.157587 0.120524 0.29117
22618 1 0.182962 0.0913395 0.289213
20076 5 0.216601 0.0637851 0.283954
22600 1 0.189673 0.0296662 0.29046
22609 5 0.179518 0.0275437 0.272049
22678 5 0.178507 0.0917574 0.269468
19990 1 0.213768 0.0581318 0.266725
22677 5 0.138681 0.0876414 0.262388
20129 5 0.237888 0.0930044 0.264841
20053 5 0.237863 0.0268109 0.26214
22602 2 0.16336 0.0346072 0.262764
22673 2 0.163169 0.0839178 0.260698
22676 4 0.164662 0.0588025 0.260045
19998 3 0.192032 0.0233704 0.309866
19994 5 0.227727 0.00524723 0.299353
22545 2 0.136562 0.00405904 0.294003
22608 3 0.172656 0.021791 0.253038
19992 8 0.223037 0.0254974 0.309333
22675 3 0.166894 0.0955381 0.249658
20072 5 0.215892 0.123154 0.289606
20119 1 0.209739 0.122092 0.268203
22626 3 0.128423 0.123811 0.304711
22944 9 0.142286 0.127454 0.309021
20000 5 0.258515 0.0590036 0.289582
17448 5 0.359692 0.118699 0.285646
17440 8 0.322741 0.0940083 0.308019
17446 3 0.291923 0.0966132 0.308759
17442 5 0.324442 0.0706083 0.299585
17447 4 0.329103 0.112227 0.297238
17443 4 0.335026 0.0294172 0.293922
17439 2 0.333936 0.0535746 0.291565
20048 1 0.28899 0.0917127 0.28845
19989 1 0.281678 0.0271034 0.286508
17445 5 0.357671 0.0603243 0.287999
17444 5 0.31536 0.0562848 0.282935
20057 5 0.278996 0.0889158 0.269722
17495 1 0.309851 0.0577037 0.265764
17506 5 0.339687 0.027549 0.26595
20054 5 0.277627 0.0287554 0.266247
17438 1 0.314422 0.121344 0.263858
17501 5 0.336708 0.0914068 0.261762
17421 2 0.361447 0.0349318 0.261048
20050 2 0.261514 0.0958855 0.261334
20049 2 0.260991 0.0212613 0.257711
17497 2 0.360962 0.0846964 0.258546
20040 6 0.286131 0.0259207 0.307353
17500 4 0.360864 0.058805 0.257534
17369 2 0.333611 0.00344658 0.293983
20073 5 0.257975 0.124525 0.292433
20124 4 0.265478 0.121008 0.260677
17838 9 0.332448 0.00861595 0.310664
20056 3 0.263767 0.084839 0.250098
20005 7 0.298262 0.0156452 0.30719
17857 9 0.285038 0.103927 0.31539
20004 7 0.274481 0.017973 0.311042
11841 7 0.494016 0.222926 0.418217
17427 4 0.359007 0.0192696 0.252064
17502 5 0.379732 0.0895534 0.266404
17428 5 0.381005 0.0293158 0.268649
17437 1 0.383774 0.0909621 0.2857
14860 6 0.490305 0.0921411 0.305208
15286 9 0.41607 0.0444266 0.30364
14822 3 0.429948 0.052388 0.304252
14891 4 0.431128 0.0909723 0.293575
14817 2 0.434478 0.0654227 0.293482
14887 2 0.433774 0.11579 0.29154
14823 5 0.457393 0.0592989 0.289139
17418 1 0.385898 0.0277908 0.286272
14893 5 0.456868 0.120555 0.286684
14897 5 0.41733 0.0590924 0.284877
14892 5 0.418371 0.119817 0.282137
14866 1 0.485424 0.0935587 0.284839
14814 1 0.482027 0.0288934 0.287082
14873 5 0.481069 0.0262757 0.265766
14876 5 0.48513 0.0897242 0.26373
14815 1 0.415636 0.0584256 0.265857
14943 1 0.413162 0.121071 0.265253
14954 5 0.443041 0.0896381 0.264377
17412 6 0.38539 0.0270243 0.305792
14869 2 0.463995 0.0955492 0.258057
14872 5 0.438271 0.0219912 0.264837
14867 2 0.461218 0.0202408 0.259195
17380 7 0.397343 0.0147154 0.307367
14948 4 0.46345 0.120264 0.254
17379 7 0.374325 0.0237395 0.31114
25296 2 0.0608478 0.147539 0.261333
25241 1 0.0821898 0.152911 0.289089
25249 3 0.0275158 0.184209 0.305307
25360 6 0.0872236 0.213234 0.308941
25320 4 0.0317798 0.21532 0.293622
25317 2 0.0337458 0.240298 0.292392
25295 1 0.0869377 0.21425 0.28808
25250 5 0.0564983 0.182229 0.289793
25244 2 0.0337141 0.190005 0.293426
22695 5 0.115512 0.188101 0.288723
25325 5 0.0161054 0.181386 0.285798
25302 5 0.0821838 0.15354 0.267649
25305 5 0.0797169 0.215608 0.269243
22742 1 0.11034 0.182393 0.266915
25301 5 0.0389149 0.15513 0.266234
25242 1 0.0142753 0.183173 0.265374
25376 5 0.0391605 0.221626 0.264723
25298 2 0.0633208 0.221094 0.261053
25289 6 0.085129 0.162382 0.30981
25366 1 0.00870151 0.245116 0.264253
25331 7 0.101511 0.220444 0.306714
25498 9 0.0259508 0.198736 0.309236
19771 9 0.213849 0.00585843 0.487769
25371 4 0.0674394 0.244808 0.256648
22690 1 0.115871 0.246207 0.264361
22697 3 0.123857 0.241249 0.300474
25322 5 0.0569771 0.246057 0.288682
25304 4 0.0607776 0.202006 0.25293
1999 7 0.00289441 0.213623 0.303688
25254 7 0.089421 0.177419 0.311288
1998 7 -0.00474216 0.236489 0.306682
11655 7 0.495747 0.0642141 0.394372
25321 5 0.015511 0.248294 0.285494
20070 3 0.231383 0.125961 0.307577
22747 5 0.157499 0.224955 0.251219
22693 3 0.129849 0.180534 0.305919
22621 2 0.133597 0.129296 0.292576
22704 7 0.209943 0.148387 0.307389
22694 4 0.133734 0.154748 0.290642
22691 2 0.136101 0.178605 0.293816
22748 4 0.166294 0.182725 0.257202
22674 2 0.164011 0.15774 0.259385
22754 5 0.141767 0.150736 0.263642
20202 5 0.23776 0.213166 0.261951
22672 1 0.18732 0.153309 0.289078
20142 4 0.233948 0.216062 0.290033
20147 5 0.219296 0.179704 0.286079
22696 5 0.157764 0.188794 0.290041
20074 3 0.230081 0.192925 0.305354
20069 2 0.235326 0.191711 0.293243
22689 1 0.18411 0.215684 0.288067
20392 9 0.216971 0.18353 0.307077
20139 2 0.235869 0.241495 0.29264
20067 1 0.21498 0.182673 0.265648
22680 5 0.181677 0.14881 0.267186
22750 5 0.181023 0.216703 0.266696
22749 5 0.138926 0.205046 0.26603
20125 5 0.239739 0.152986 0.263176
22744 2 0.16105 0.208237 0.260156
22737 6 0.187885 0.218374 0.307795
22736 6 0.19651 0.15517 0.309466
22703 7 0.202609 0.210739 0.308303
20393 9 0.235367 0.227113 0.308001
22698 5 0.156453 0.244761 0.288717
22702 7 0.19157 0.231783 0.31215
20190 1 0.206917 0.244494 0.265529
20141 3 0.234533 0.241324 0.305038
22945 9 0.119039 0.168545 0.307913
22963 7 0.141859 0.22809 0.312545
17524 5 0.317187 0.123993 0.280941
17441 2 0.337401 0.127056 0.288563
17572 4 0.363482 0.184457 0.258679
20126 5 0.281675 0.156583 0.265841
20075 5 0.259066 0.183024 0.290268
20066 1 0.283426 0.152173 0.288007
17516 2 0.335537 0.177534 0.292898
17518 3 0.330092 0.184165 0.304696
20079 7 0.307691 0.207493 0.307434
20114 6 0.295966 0.218629 0.306034
17519 4 0.339085 0.151727 0.29247
17521 5 0.35786 0.18517 0.2888
20120 1 0.287174 0.215653 0.285567
17520 5 0.316398 0.183729 0.285265
17595 5 0.316065 0.245411 0.284446
17567 1 0.309711 0.183428 0.265731
20128 5 0.277835 0.210532 0.265753
17577 5 0.33897 0.153053 0.263019
17573 5 0.336795 0.218056 0.261251
17498 2 0.362701 0.159741 0.25988
20121 2 0.263384 0.14564 0.259323
17569 2 0.359611 0.209313 0.257944
20122 2 0.260801 0.218125 0.257591
20196 4 0.264291 0.244066 0.256042
20113 6 0.28309 0.149307 0.307591
17839 9 0.331917 0.172085 0.310094
17529 7 0.361335 0.22818 0.305121
17530 7 0.358479 0.204898 0.3061
17840 9 0.3219 0.242891 0.304388
17523 5 0.358099 0.24358 0.285509
17561 6 0.370934 0.21534 0.305461
17515 1 0.311402 0.246428 0.263238
20081 7 0.272818 0.13681 0.306467
17522 3 0.336174 0.24772 0.302131
14900 7 0.498866 0.152814 0.30926
15020 4 0.461939 0.245599 0.258584
17505 5 0.381575 0.150944 0.267069
17574 5 0.378242 0.219711 0.264096
17514 1 0.383277 0.214516 0.285977
14890 5 0.426608 0.133588 0.299452
14945 2 0.462005 0.145229 0.256541
14886 1 0.414179 0.185048 0.262272
14894 3 0.389155 0.159922 0.30621
14972 5 0.418074 0.18732 0.279958
14896 5 0.459135 0.186876 0.286574
14888 8 0.421001 0.157191 0.307181
12342 3 0.485654 0.213574 0.305332
14895 4 0.428757 0.176924 0.298086
14964 2 0.435339 0.241297 0.291134
14967 4 0.432484 0.216417 0.292107
14889 2 0.434551 0.191819 0.288968
17496 1 0.388716 0.153196 0.286887
14944 1 0.488925 0.215012 0.286044
14885 1 0.483462 0.155185 0.284352
14953 5 0.482618 0.21387 0.265739
14936 6 0.484578 0.15463 0.305257
14950 5 0.480752 0.15247 0.263552
15015 1 0.407054 0.24528 0.263777
15025 5 0.438861 0.215477 0.261979
14949 5 0.439634 0.149133 0.261392
14946 2 0.462802 0.220813 0.258546
14901 7 0.472464 0.150493 0.309322
14969 5 0.458532 0.248808 0.288031
12753 9 0.474695 0.218575 0.310729
15305 9 0.382363 0.174821 0.305509
25183 7 0.0786811 0.014762 0.314852
24544 6 0.0937841 0.0269466 0.336785
24654 7 0.0743812 0.0779158 0.328172
24655 7 0.09465 0.08966 0.328413
24614 6 0.0825899 0.0852679 0.333463
24820 9 0.0174605 0.0481871 0.341082
24550 1 0.0922456 0.0865418 0.353717
24571 2 0.0378837 0.0624164 0.35269
24576 3 0.0325601 0.0462442 0.342893
24577 5 0.0606455 0.0565405 0.356924
24639 2 0.0385223 0.112863 0.352256
24643 4 0.0365289 0.0868013 0.349985
24644 5 0.0206406 0.117257 0.360402
24645 5 0.0622953 0.12036 0.354191
24649 5 0.0203412 0.0596363 0.361286
24568 1 0.0883861 0.0278616 0.35661
22022 5 0.117828 0.0611487 0.35494
22097 5 0.123626 0.120674 0.357232
24582 7 0.107567 0.0286935 0.332921
24581 7 0.0849703 0.0169148 0.332327
24819 9 0.0317258 0.0152207 0.343613
22268 9 0.121446 0.120325 0.333545
24560 5 0.0888727 0.0865747 0.374469
14329 4 0.463549 0.178565 0.473419
22665 6 0.128985 0.0218149 0.322914
22943 9 0.13133 0.0480639 0.312918
22633 7 0.133357 0.00958383 0.32722
22020 3 0.137237 0.0539792 0.337455
20391 9 0.227994 0.11532 0.313141
22634 7 0.137078 0.0341364 0.325964
20409 9 0.183522 0.0187775 0.316825
22267 9 0.131471 0.0682544 0.334909
22024 3 0.128023 0.110548 0.338498
22032 7 0.209571 0.0150891 0.333979
22021 4 0.138479 0.02645 0.353518
20065 6 0.24355 0.0218083 0.321032
20416 7 0.243361 0.0337165 0.32719
22631 7 0.166037 0.0818686 0.330141
22632 7 0.169216 0.103115 0.33549
19714 9 0.23236 0.0727255 0.333477
22666 6 0.177759 0.0907781 0.33318
19468 3 0.234485 0.116206 0.334933
19398 3 0.234257 0.0591568 0.337664
19466 2 0.238517 0.1141 0.347162
19469 4 0.236265 0.0889458 0.350436
19393 2 0.239654 0.0645436 0.349511
19470 5 0.219687 0.12331 0.354024
19474 5 0.221976 0.0535518 0.356695
22016 1 0.186361 0.0867 0.353764
22018 2 0.139654 0.0512408 0.350011
22023 5 0.163216 0.057084 0.35355
22025 5 0.160932 0.117524 0.350937
21925 1 0.196034 0.0242508 0.356691
21991 6 0.198368 0.0251841 0.335955
22031 7 0.206303 0.0383033 0.333794
20415 7 0.241841 0.00723819 0.325812
19715 9 0.246332 0.123884 0.331239
22019 2 0.138553 0.125717 0.347803
21945 2 0.140635 0.000565134 0.353123
20039 6 0.290815 0.0192402 0.333718
17513 6 0.346202 0.0965599 0.318257
17864 7 0.343512 0.0903762 0.326275
17863 7 0.352998 0.112431 0.320248
19365 6 0.292677 0.0922204 0.332273