ITEM: TIMESTEP
668000
ITEM: NUMBER OF ATOMS
25520
ITEM: BOX BOUNDS pp pp pp
-3.9680324624475993e-01 6.0095346836247060e+01
-1.9525196292691469e+00 5.9122804903267436e+01
-1.2660581008038941e+01 1.1193631341404993e+02
ITEM: ATOMS id type xs ys zs
25182 6 0.0858458 0.0271296 0.153281
25252 6 0.0992243 0.0778944 0.152243
25214 3 0.0413143 0.0488825 0.157391
25287 5 0.0294879 0.0553366 0.176803
25283 5 0.0691146 0.11917 0.171555
25282 5 0.0281718 0.116146 0.178807
25281 4 0.0433227 0.087073 0.16722
25277 2 0.0442565 0.111616 0.169014
25215 5 0.0695473 0.0553392 0.171249
25209 2 0.0458372 0.0612198 0.168183
25188 1 0.0997407 0.0874562 0.172758
25458 9 0.0340842 0.0577914 0.152175
25206 1 0.0949253 0.0248854 0.173946
25293 7 0.0898299 0.0659555 0.151738
25220 7 0.0933915 0.0277953 0.146723
25219 7 0.0722983 0.0351619 0.151857
25292 7 0.114435 0.0703716 0.15189
2433 1 0.00138836 0.0222396 0.177656
22735 5 0.13031 0.11676 0.173195
22660 5 0.130586 0.0554659 0.175363
22905 9 0.155488 0.0683241 0.154423
22662 3 0.144673 0.114387 0.15458
22658 3 0.142584 0.0600435 0.156888
22656 2 0.147943 0.0467696 0.167211
20112 5 0.229733 0.0539659 0.173296
22663 5 0.170098 0.119343 0.170189
22654 1 0.194452 0.0868472 0.170525
22661 5 0.170886 0.0538522 0.169758
22659 4 0.144724 0.0210188 0.166945
22563 1 0.201278 0.0242261 0.174456
22629 6 0.213875 0.018993 0.154864
22630 6 0.189646 0.0770289 0.151097
22667 7 0.196208 0.0824849 0.144214
22668 7 0.186868 0.0621351 0.148792
20108 5 0.231503 0.120681 0.17307
22906 9 0.141347 0.0993819 0.155049
20106 3 0.244736 0.120575 0.153716
20036 3 0.245805 0.0533844 0.154119
22670 7 0.223041 0.0310744 0.152866
22669 7 0.224157 0.00667176 0.155934
20107 4 0.244493 0.087029 0.165725
20104 2 0.248747 0.111428 0.165538
20031 2 0.248233 0.0615645 0.166374
20352 9 0.240871 0.065647 0.150152
22517 7 0.25235 0.0832145 0.135736
22740 7 0.209879 0.130458 0.147267
22482 6 0.237564 0.0876899 0.137521
22518 7 0.239076 0.101615 0.141363
20118 7 0.319824 0.0701554 0.155597
20117 7 0.317017 0.0946472 0.15318
20077 6 0.307995 0.0819032 0.155756
17480 3 0.342825 0.0484436 0.15774
17799 9 0.355793 0.0551353 0.154072
17478 2 0.348382 0.0426274 0.169784
20109 5 0.27288 0.116178 0.169389
17482 5 0.330326 0.0511933 0.176951
20037 5 0.271792 0.0563922 0.169941
20011 1 0.299019 0.0820687 0.173393
20028 1 0.296995 0.0202701 0.173869
17481 4 0.345996 0.0170445 0.169402
17484 3 0.33832 0.1147 0.157567
20003 6 0.303908 0.0110893 0.153932
20042 7 0.293489 0.0150823 0.148335
17560 5 0.329969 0.117745 0.177998
20041 7 0.315582 0.0214278 0.153009
17483 5 0.37024 0.0520406 0.173741
17485 5 0.369364 0.115069 0.172279
17479 2 0.346058 0.122983 0.169118
14848 1 0.493908 0.0226696 0.176093
17490 7 0.406476 0.0655327 0.154143
17489 7 0.416663 0.0867552 0.156584
17451 6 0.40174 0.0800463 0.15523
14856 3 0.438819 0.0488326 0.159412
15246 9 0.447864 0.0542923 0.153345
14929 4 0.444428 0.0859912 0.167491
14926 2 0.448083 0.110977 0.169082
14851 2 0.448234 0.0612917 0.16972
14931 5 0.472198 0.115107 0.172392
14857 5 0.47285 0.0601879 0.172961
17476 1 0.395177 0.0854328 0.175128
14934 5 0.431744 0.0551444 0.178733
14930 5 0.430943 0.115427 0.178081
17384 1 0.400352 0.022897 0.177383
17450 6 0.403175 0.0200289 0.156477
17492 7 0.415824 0.0305068 0.154564
14862 7 0.492551 0.0204083 0.149912
17491 7 0.411212 0.00625193 0.157231
25291 7 0.0956958 0.148056 0.147215
25280 5 0.0388711 0.129173 0.160755
25290 7 0.115372 0.142838 0.153656
2033 7 0.0425515 0.144077 0.135078
25253 6 0.099649 0.144737 0.154369
2032 7 0.0490119 0.169959 0.137112
1995 6 0.0374552 0.157345 0.139215
25275 1 0.0955686 0.150169 0.174518
25278 8 0.0313123 0.155081 0.154791
22957 9 0.0911616 0.235931 0.15456
22732 3 0.099825 0.22098 0.156559
25285 4 0.0390963 0.174923 0.164173
25359 5 0.0303805 0.181503 0.183125
25356 5 0.0718921 0.244771 0.174978
25354 4 0.0474767 0.211129 0.171063
25351 2 0.0480494 0.237019 0.172758
25286 5 0.0698825 0.179494 0.17673
25279 2 0.046251 0.187087 0.174151
25259 1 0.100597 0.212211 0.176147
25355 5 0.0312071 0.245856 0.180301
25394 6 0.0656647 0.195002 0.146688
25432 7 0.0578093 0.193184 0.153548
25433 7 0.0793113 0.202646 0.148265
2103 7 0.0149716 0.225722 0.158203
14995 7 0.404825 0.238846 0.220409
25353 3 0.0439754 0.244648 0.161458
20365 9 0.260183 0.0437106 0.247918
22657 2 0.147554 0.125041 0.165328
22741 7 0.18489 0.131867 0.150584
1962 7 0.150454 0.200204 0.135829
22726 8 0.129512 0.216317 0.151335
1963 7 0.147954 0.226459 0.133287
1927 6 0.138814 0.213078 0.136588
22730 5 0.128394 0.180308 0.176704
22700 6 0.199135 0.138194 0.15183
22636 1 0.200385 0.149349 0.172764
22729 4 0.145338 0.15129 0.164831
22733 4 0.138451 0.235673 0.160872
20189 7 0.202166 0.234335 0.152881
20148 6 0.204662 0.21844 0.15429
22728 5 0.136646 0.191208 0.158637
22725 2 0.144361 0.176415 0.167396
20178 5 0.230314 0.239509 0.176711
20183 5 0.229876 0.181501 0.176048
22723 1 0.193438 0.212531 0.173737
22731 5 0.168035 0.183697 0.170557
22807 5 0.130578 0.244603 0.179439
20188 7 0.218983 0.222398 0.157435
22734 5 0.168733 0.247245 0.173205
20177 4 0.248243 0.211587 0.165988
20354 9 0.227337 0.184484 0.15382
20353 9 0.240625 0.136304 0.154251
20110 3 0.238995 0.175112 0.156297
20105 2 0.247 0.186146 0.167447
20173 2 0.248999 0.236304 0.168885
17800 9 0.337597 0.126737 0.152883
17555 4 0.348621 0.147856 0.16803
20102 1 0.293831 0.148766 0.173947
17554 3 0.34433 0.17681 0.154224
17801 9 0.348333 0.192166 0.152361
17558 3 0.3391 0.235134 0.15477
17552 2 0.346537 0.172447 0.166547
17556 5 0.327209 0.181132 0.173339
20111 5 0.270402 0.180042 0.171
20084 1 0.30263 0.209182 0.17345
20179 5 0.273519 0.241853 0.17186
17631 5 0.331101 0.239833 0.174296
17559 5 0.370685 0.24014 0.167782
17557 5 0.369441 0.180139 0.170886
14928 3 0.442459 0.124104 0.158611
14940 7 0.487005 0.130192 0.155195
15247 9 0.445171 0.139935 0.160022
14924 1 0.497579 0.147227 0.174297
17566 7 0.396435 0.144287 0.147744
17565 7 0.420114 0.136623 0.150952
17563 7 0.393654 0.231757 0.151671
17564 7 0.416665 0.224357 0.152379
14938 7 0.479981 0.207887 0.146744
14937 7 0.457735 0.19607 0.147664
17525 6 0.407743 0.146159 0.153158
17459 1 0.398296 0.147548 0.174563
17526 6 0.402492 0.21796 0.153008
14899 6 0.464654 0.20804 0.143579
15248 9 0.42791 0.172536 0.15497
15002 3 0.444798 0.238036 0.155605
14932 3 0.4436 0.17642 0.15623
15000 2 0.450068 0.233018 0.167594
15003 4 0.448122 0.208116 0.169385
14927 2 0.446913 0.183303 0.168246
15005 5 0.473188 0.242552 0.170352
14933 5 0.470193 0.174329 0.172098
15004 5 0.430077 0.238971 0.174568
17550 1 0.396437 0.209132 0.173167
15008 5 0.428623 0.17461 0.174977
15249 9 0.45128 0.226142 0.150836
14898 6 0.498349 0.14072 0.153949
25236 7 0.0241751 0.0707629 0.243439
25471 9 0.0644926 0.0248445 0.246416
25198 5 0.0935006 0.0890412 0.191181
25195 5 0.09485 0.0231286 0.193998
25268 5 0.0525723 0.0844874 0.195414
25258 1 0.0246187 0.118294 0.197092
25207 1 0.0259072 0.0542936 0.197287
25191 2 0.0754148 0.0930469 0.19926
25263 4 0.0774444 0.117524 0.202283
25197 4 0.0771976 0.0798277 0.209319
25192 5 0.073125 0.0340482 0.211063
25196 3 0.0363964 0.0547321 0.217129
25190 8 0.0663602 0.0584097 0.218226
25510 9 0.0286453 0.0438813 0.222425
25517 7 0.0923516 0.0750933 0.23331
25240 6 0.078608 0.0653139 0.232067
22685 7 0.0861861 0.10231 0.220872
25506 7 0.0670013 0.0674737 0.238585
22649 6 0.0858772 0.112885 0.227125
25194 5 0.0511987 0.0181026 0.198227
25189 2 0.075992 0.0178658 0.201817
25308 6 0.0230469 0.114619 0.217795
25472 9 0.0567129 0.0979193 0.245324
25272 7 0.030988 0.117017 0.224106
25201 6 0.0121851 0.0616115 0.246022
25205 7 0.00766242 0.00681563 0.221607
22687 7 0.116678 0.0559782 0.244675
25271 7 0.0111767 0.104279 0.220021
22684 7 0.0722098 0.11124 0.230778
22651 7 0.114998 0.0734909 0.217233
25382 7 0.00661552 0.245014 0.237695
17474 7 0.324222 0.00155601 0.22877
22635 1 0.123258 0.0556471 0.193919
25270 6 0.0489517 0.120804 0.239178
22760 7 0.106491 0.121912 0.240771
25309 7 0.0338047 0.124768 0.241615
25237 7 6.65626e-05 0.0633421 0.240541
22683 6 0.119794 0.0603576 0.214326
22717 6 0.114147 0.120718 0.247896
22650 7 0.134174 0.058034 0.218413
25235 6 0.0729664 0.00991292 0.234813
25202 7 0.0776762 0.0162405 0.228266
22958 9 0.118234 0.10965 0.215591
25203 7 0.0858018 0.00279622 0.237439
20096 6 0.205193 0.0627048 0.248729
22643 5 0.19016 0.0887323 0.190568
22655 1 0.127175 0.116464 0.193965
20062 7 0.131566 0.084295 0.243533
20023 6 0.125061 0.0794714 0.236854
20134 7 0.207779 0.074242 0.243158
20061 7 0.136802 0.0710699 0.233661
22572 5 0.192501 0.0244967 0.194838
20083 1 0.221185 0.118791 0.192848
20029 1 0.227416 0.056564 0.194545
22642 5 0.150426 0.0801042 0.194917
20063 7 0.168048 0.0479239 0.221922
22637 2 0.173807 0.0808437 0.199219
22641 4 0.178665 0.056339 0.202586
22565 2 0.174294 0.0311606 0.202254
22640 5 0.17122 0.097326 0.208453
20060 6 0.222908 0.0601306 0.215418
20022 6 0.164086 0.062094 0.225195
20064 7 0.170773 0.0725114 0.220432
22647 5 0.151711 0.0234125 0.199013
22571 3 0.178694 0.0218722 0.213735
22638 8 0.159485 0.117012 0.217096
22644 3 0.130977 0.115506 0.211154
22965 7 0.165551 0.0944604 0.234439
22577 7 0.147076 0.0350646 0.233333
20025 7 0.22509 0.0480704 0.219708
22688 6 0.16827 0.110677 0.231205
22612 6 0.150985 0.0198087 0.235439
22576 7 0.164943 0.0184828 0.231297
20024 7 0.208012 0.0578792 0.213685
22931 9 0.189853 0.0101006 0.213342
20130 6 0.218947 0.0937044 0.232977
17471 6 0.214387 0.0229889 0.235523
17510 7 0.204233 0.0345275 0.237439
17509 7 0.227062 0.0275042 0.239573
20133 7 0.210137 0.124295 0.242849
20131 6 0.216779 0.121778 0.212969
22613 7 0.129751 0.0114907 0.246273
20100 7 0.218186 0.0878332 0.225513
20101 7 0.205526 0.101535 0.232616
22954 7 0.168631 0.122335 0.237565
20097 6 0.203834 0.130858 0.249181
22918 9 0.157593 0.0190353 0.248849
17549 7 0.241456 0.110064 0.231622
12399 6 0.491927 0.189566 0.247073
17512 7 0.270689 0.00562559 0.23873
20095 5 0.249671 0.0841154 0.196774
17511 7 0.267914 0.00751657 0.226913
20016 5 0.250926 0.0248708 0.198958
17456 7 0.287695 0.0678054 0.244924
20020 5 0.291418 0.0826338 0.193613
20017 5 0.292353 0.0234731 0.194477
17477 1 0.326054 0.11607 0.195169
17458 1 0.32254 0.0532996 0.195951
17464 5 0.351405 0.0871934 0.198082
20013 2 0.273122 0.0900321 0.201099
20379 9 0.261428 0.0754897 0.215459
20089 4 0.276335 0.115188 0.202848
20019 3 0.276015 0.0792856 0.21255
20378 9 0.280293 0.0453136 0.213151
17466 6 0.321825 0.0538746 0.216476
17493 7 0.331666 0.0458603 0.221561
17494 7 0.307169 0.0473494 0.217311
14960 7 0.349562 0.0917808 0.225784
14918 6 0.336249 0.0899579 0.229495
14959 7 0.329338 0.0788066 0.225336
17469 5 0.351843 0.0238967 0.202035
20014 3 0.282664 0.0296175 0.21342
20012 2 0.274437 0.018872 0.202845
17503 6 0.298206 0.0563121 0.2464
17499 3 0.364108 0.0918598 0.248132
17457 7 0.289942 0.0426168 0.246799
17583 7 0.313274 0.113493 0.238053
17813 9 0.350327 0.0923453 0.243416
17860 7 0.367771 0.00831485 0.228511
17473 7 0.324935 0.11116 0.219775
20366 9 0.254036 0.0868456 0.245224
17472 7 0.302116 0.115855 0.214993
17460 2 0.373015 0.0824851 0.203036
17463 4 0.376947 0.0578984 0.203844
17386 2 0.374814 0.0324739 0.204371
17826 9 0.377105 0.109624 0.213479
22652 7 0.135241 0.00169905 0.223139
20051 3 0.258142 0.0281451 0.247574
15262 9 0.456503 0.234839 0.245747
14846 7 0.368289 0.0679077 0.237378
17462 3 0.373816 0.0945438 0.214281
14847 7 0.374008 0.0707035 0.225383
14878 6 0.374145 0.0597632 0.231463
17825 9 0.377248 0.0394691 0.221022
17391 3 0.380337 0.0266285 0.216599
15272 9 0.491005 0.012097 0.219551
14840 5 0.494502 0.0860447 0.198913
17465 5 0.392907 0.0887808 0.195787
14906 1 0.424342 0.118079 0.19708
17392 5 0.392897 0.0235155 0.197702
14849 1 0.427065 0.0568435 0.197842
14917 5 0.453692 0.0876942 0.201081
14837 5 0.451829 0.025343 0.203549
14911 4 0.475815 0.119708 0.205993
14834 2 0.475395 0.0949108 0.205648
14839 3 0.479572 0.0858639 0.217551
14955 6 0.421607 0.0599183 0.218012
15273 9 0.475054 0.0963346 0.222723
14922 7 0.40861 0.0552491 0.222606
14923 7 0.434392 0.0564741 0.22314
15308 7 0.468058 0.0564313 0.226402
14884 6 0.458148 0.0454125 0.230848
15297 7 0.465528 0.0299868 0.230216
15303 9 0.404168 0.0549745 0.240989
14868 8 0.446533 0.0543621 0.244813
14835 3 0.489572 0.0246005 0.214587
14874 3 0.415633 0.0516811 0.24696
14833 2 0.475424 0.0178307 0.204857
14838 5 0.489419 0.0242321 0.195077
14941 7 0.430364 0.111302 0.223469
12366 6 0.456681 0.109501 0.235636
12408 7 0.455729 0.10314 0.242081
14905 7 0.390014 0.11025 0.24339
14951 6 0.399727 0.123414 0.243732
14914 6 0.421905 0.118816 0.217807
14844 7 0.405224 0.00954819 0.220828
25284 3 0.00207692 0.148667 0.158576
22759 7 0.126209 0.130147 0.246913
22825 6 0.119178 0.246357 0.218113
25310 7 0.0572852 0.128559 0.244613
25345 7 0.00577924 0.235313 0.223362
25484 9 0.0804722 0.13612 0.219737
25267 5 0.0934855 0.212026 0.197037
25265 5 0.0930011 0.150831 0.194348
25303 3 0.0120085 0.178332 0.247441
25260 2 0.0772073 0.14266 0.203214
25264 5 0.0536268 0.150445 0.200471
25332 1 0.0216812 0.24367 0.200347
25276 1 0.0278063 0.1803 0.200518
25342 5 0.0517479 0.212192 0.202581
25337 4 0.0782957 0.24226 0.206961
25261 2 0.0760092 0.217448 0.205107
25266 3 0.0818679 0.208725 0.216392
25262 3 0.0841899 0.148938 0.214426
25485 9 0.0943969 0.197475 0.215679
22720 7 0.107383 0.167888 0.216306
25377 6 0.0173676 0.174012 0.219955
25507 7 0.06145 0.193623 0.226554
25518 7 0.0511406 0.168547 0.225116
25314 6 0.0584643 0.179325 0.231328
25297 8 0.0421043 0.179395 0.244344
22751 3 0.113978 0.240836 0.245361
22758 7 0.113147 0.182629 0.243858
22718 6 0.100005 0.186912 0.248413
25348 7 0.0065979 0.185553 0.21976
25347 7 0.00832762 0.162293 0.222188
22830 7 0.0750843 0.238444 0.223653
22757 7 0.0872674 0.187041 0.243481
22756 6 0.120384 0.178105 0.216671
22796 7 0.107693 0.235805 0.218351
25378 6 0.0169948 0.246314 0.221523
22706 1 0.124037 0.182431 0.196688
22960 9 0.102733 0.241854 0.23956
2065 6 0.00200866 0.216681 0.158748
22719 7 0.12888 0.174149 0.223278
20098 7 0.226959 0.12699 0.217986
22955 7 0.163504 0.248722 0.223746
20099 7 0.203119 0.132556 0.213169
22724 1 0.127902 0.244095 0.198445
20167 7 0.210891 0.225783 0.216195
22646 5 0.193104 0.146174 0.19278
22713 5 0.192499 0.214175 0.195015
20103 1 0.226585 0.17993 0.19608
22716 5 0.152591 0.146198 0.196334
20154 1 0.22296 0.242269 0.195635
22722 7 0.143008 0.167838 0.242552
22645 4 0.175607 0.141865 0.211385
22712 5 0.154159 0.214797 0.199382
22639 2 0.174897 0.154078 0.200333
22708 2 0.176659 0.203891 0.20317
22711 4 0.174542 0.17892 0.200926
22710 3 0.18567 0.206534 0.214714
22932 9 0.182008 0.193096 0.219038
20204 6 0.219444 0.240108 0.215673
20092 3 0.232896 0.177632 0.214356
22721 7 0.144874 0.19312 0.242927
20406 9 0.222286 0.166466 0.218786
22745 8 0.144552 0.240437 0.242694
20166 6 0.184951 0.171589 0.227516
20206 7 0.171932 0.178291 0.23032
22755 6 0.138222 0.181098 0.23835
20205 7 0.180754 0.158829 0.223354
22762 6 0.162001 0.23737 0.229862
20169 7 0.208475 0.171979 0.239305
20203 6 0.214917 0.18015 0.245161
22966 7 0.162756 0.221915 0.22564
20170 7 0.231164 0.179286 0.243373
20165 6 0.202635 0.242871 0.244025
20207 7 0.189868 0.244785 0.239141
22575 6 0.116638 0.0023722 0.248186
17508 6 0.316994 0.121033 0.214548
17571 3 0.355995 0.219933 0.249761
17537 4 0.379705 0.178686 0.205682
17461 2 0.375463 0.153018 0.203262
17578 6 0.253787 0.121718 0.230167
17504 3 0.360073 0.149839 0.247339
20367 9 0.255371 0.137362 0.241311
20090 5 0.248554 0.14062 0.195276
17544 6 0.311013 0.123234 0.244338
17548 7 0.267167 0.113872 0.228207
17618 7 0.276465 0.24385 0.22441
17854 9 0.316569 0.241651 0.220537
20123 3 0.254294 0.150816 0.246543
17582 7 0.325484 0.130592 0.243796
17545 6 0.30996 0.242908 0.245008
17617 7 0.272583 0.219673 0.222666
20164 5 0.252155 0.211764 0.196136
17651 6 0.272953 0.23119 0.228484
20368 9 0.264364 0.22015 0.241952
20091 5 0.288698 0.147916 0.19196
20094 5 0.294011 0.20883 0.193103
17531 1 0.321926 0.177738 0.195847
17551 1 0.327304 0.239675 0.194901
17538 5 0.351896 0.201026 0.195414
17543 5 0.351523 0.148542 0.199443
20085 2 0.272265 0.139747 0.199699
20086 8 0.263424 0.176202 0.21799
20087 2 0.275689 0.215027 0.200648
20159 4 0.279561 0.239825 0.202223
20088 5 0.268957 0.155337 0.208808
20093 4 0.272742 0.198139 0.209331
17547 7 0.310201 0.180408 0.221633
17540 3 0.328436 0.240734 0.214205
17579 6 0.319636 0.172949 0.216096
17546 7 0.32 0.157149 0.218942
20136 6 0.282662 0.177974 0.230946
20413 7 0.279201 0.192034 0.235806
20402 7 0.278764 0.164795 0.236585
17534 8 0.358798 0.2428 0.217821
14996 7 0.358431 0.18824 0.232031
17581 7 0.300999 0.237489 0.239157
17814 9 0.360364 0.161446 0.241966
17580 7 0.32255 0.233143 0.243938
17536 5 0.368283 0.219433 0.20954
17533 2 0.373372 0.202637 0.201315
17815 9 0.371874 0.222707 0.248877
20127 3 0.262257 0.20785 0.247572
17850 7 0.377375 0.222639 0.234011
17584 6 0.375736 0.238885 0.230768
14912 5 0.453064 0.150844 0.198223
12751 9 0.498445 0.119253 0.242982
15027 6 0.417422 0.238377 0.215163
14958 7 0.393599 0.184671 0.238791
20046 7 0.216825 0.000409754 0.224307
17468 5 0.39191 0.148659 0.194416
14910 3 0.475681 0.156464 0.214664
14942 7 0.406569 0.122013 0.220296
14956 6 0.427309 0.19033 0.216103
14915 3 0.478847 0.206285 0.214559
15274 9 0.47563 0.172171 0.213957
15026 6 0.370904 0.180648 0.229503
14997 7 0.373376 0.186828 0.222904
17827 9 0.371163 0.147534 0.219676
14939 7 0.492539 0.151497 0.148484
14957 7 0.419511 0.184055 0.239787
14904 7 0.390498 0.136205 0.243664
20008 7 0.208384 0.00124671 0.243888
12407 7 0.453711 0.124574 0.237398
14925 1 0.42646 0.180298 0.196352
14979 1 0.42143 0.240848 0.193832
14919 6 0.406799 0.188208 0.243542
14991 5 0.451324 0.208243 0.199345
12352 7 0.48014 0.178763 0.245196
17467 3 0.380757 0.140401 0.214085
12353 7 0.484481 0.203937 0.245944
14985 4 0.472158 0.242529 0.203102
12329 7 0.433088 0.144583 0.227386
17539 5 0.392861 0.210884 0.194824
14994 7 0.419653 0.223077 0.215004
14916 5 0.492086 0.20673 0.196409
14913 5 0.494801 0.151374 0.196711
14909 2 0.474284 0.216449 0.203854
14908 2 0.475049 0.144957 0.203804
12328 7 0.455701 0.15617 0.227749
15261 9 0.451802 0.153173 0.2436
15275 9 0.478148 0.217302 0.22028
14920 7 0.441106 0.198012 0.213909
14947 3 0.463539 0.151861 0.248698
14921 7 0.429637 0.17653 0.220728
12291 6 0.440364 0.15727 0.230976
22791 6 0.0701963 0.248145 0.229952
20208 7 0.212263 0.233101 0.240374
17553 2 0.347134 0.246379 0.165626
15030 7 0.400261 0.24866 0.240855
17861 7 0.368089 0.246599 0.237954
12367 6 0.496275 0.249523 0.244225
17802 9 0.346034 0.240613 0.149168
12406 7 0.485717 0.24127 0.239673
14952 3 0.461675 0.220636 0.24974
22686 7 0.098772 0.0410958 0.249836
25178 3 0.0240923 0.0568915 0.30677
25245 3 0.0240955 0.117655 0.308007
25251 5 0.0126924 0.0556724 0.286985
25246 4 0.0314881 0.088291 0.294857
25243 2 0.0280838 0.113007 0.295928
25224 1 0.0808654 0.0890449 0.289996
25179 5 0.0531195 0.0522173 0.292658
25173 2 0.030964 0.0624332 0.29517
25170 1 0.0768453 0.024826 0.291283
25232 5 0.0751654 0.0860622 0.269675
25230 5 0.0730104 0.0260849 0.271965
22671 1 0.10599 0.0557981 0.271054
25171 1 0.0077269 0.0573732 0.266554
25229 5 0.0342474 0.0273806 0.265552
25306 5 0.0327467 0.0908747 0.2653
25226 2 0.057424 0.0952913 0.261899
25225 2 0.0576251 0.0196572 0.262705
25496 9 0.00906611 0.0531137 0.307047
25288 6 0.0804288 0.0827022 0.310334
22619 1 0.10954 0.118366 0.268706
25300 4 0.059631 0.120313 0.261331
25248 5 0.051104 0.120877 0.292495
22699 5 0.113997 0.117933 0.288464
22624 5 0.11312 0.0605894 0.290719
25294 1 0.00127834 0.1183 0.267164
25247 5 0.00900362 0.118724 0.288121
25497 9 0.0212516 0.104363 0.311887
25218 6 0.0835328 0.0184595 0.312051
22622 3 0.127772 0.0687577 0.308817
22944 9 0.116424 0.105653 0.309006
25184 7 0.0994819 0.0138102 0.312615
25257 7 0.0951512 0.0768241 0.311636
22943 9 0.141738 0.0736784 0.311836
22626 3 0.122549 0.120849 0.30874
25227 3 0.0693141 0.0294138 0.253212
25231 3 0.0606912 0.085472 0.250335
22623 4 0.126051 0.0283641 0.301578
22681 5 0.13724 0.0264248 0.26832
22620 2 0.12987 0.0533367 0.299176
19999 4 0.222091 0.0456247 0.304473
19993 2 0.23055 0.061784 0.295347
20068 2 0.229529 0.111585 0.296714
20071 4 0.22773 0.0856319 0.298899
22625 5 0.153367 0.0552634 0.295109
22627 5 0.152886 0.119099 0.293955
22618 1 0.178408 0.0875769 0.291263
20076 5 0.213608 0.0601821 0.28602
22600 1 0.184166 0.0270554 0.292727
22609 5 0.176868 0.0294705 0.273844
22678 5 0.174863 0.088532 0.27145
19990 1 0.211558 0.0591909 0.268519
22677 5 0.132775 0.0867946 0.266906
20129 5 0.237078 0.092867 0.265135
20053 5 0.236295 0.0291081 0.265969
22602 2 0.160257 0.0317424 0.264941
22673 2 0.155904 0.0811185 0.263463
22676 4 0.160763 0.0560557 0.260852
20119 1 0.206129 0.118484 0.268728
22608 3 0.166811 0.0162931 0.255469
20072 5 0.212869 0.121263 0.288712
22675 3 0.162075 0.0938764 0.252779
19994 5 0.228865 0.00132925 0.305047
22919 9 0.15815 0.109404 0.253209
22545 2 0.129854 0.00378387 0.29721
22665 6 0.172746 0.0918404 0.311107
19992 8 0.221156 0.0222804 0.313687
22621 2 0.130187 0.126559 0.296872
20000 5 0.253612 0.0563451 0.291031
17448 5 0.35278 0.119815 0.289703
17440 8 0.319287 0.0898102 0.3106
17446 3 0.287734 0.0854348 0.309466
17442 5 0.322793 0.0675052 0.301741
17447 4 0.320973 0.111092 0.301386
17443 4 0.333081 0.0263792 0.297441
17439 2 0.332299 0.0514678 0.293877
20048 1 0.286818 0.0896984 0.290488
19989 1 0.280274 0.0286783 0.289325
17445 5 0.354996 0.0611585 0.290438
17444 5 0.315678 0.0530719 0.28484
20057 5 0.276297 0.086841 0.270361
17495 1 0.305277 0.0564555 0.267053
17506 5 0.336114 0.0275037 0.267055
20054 5 0.277667 0.0278318 0.266655
17438 1 0.311809 0.11853 0.265323
17501 5 0.334528 0.0857274 0.26198
17421 2 0.35964 0.0311392 0.262347
20050 2 0.26046 0.0944694 0.261543
20049 2 0.2572 0.0205653 0.260135
17497 2 0.358438 0.0807794 0.25872
20040 6 0.283399 0.0188 0.309957
17500 4 0.362001 0.0546404 0.257832
20073 5 0.253307 0.114924 0.291873
20124 4 0.263519 0.118685 0.258542
17427 4 0.356614 0.0130162 0.254426
20056 3 0.262595 0.0810486 0.2511
17524 5 0.313543 0.121879 0.282527
14381 3 0.493492 0.247915 0.430503
21938 7 0.127448 0.00732403 0.401864
20005 7 0.269981 0.019085 0.314679
17428 5 0.376366 0.0255115 0.27083
17502 5 0.374778 0.0894442 0.266829
17437 1 0.378626 0.090523 0.287424
14822 3 0.419342 0.056681 0.30526
14891 4 0.430276 0.0885927 0.295554
14817 2 0.42938 0.0634078 0.293312
14887 2 0.428579 0.113298 0.293191
14823 5 0.451965 0.0526954 0.292217
17418 1 0.382366 0.023408 0.288714
14893 5 0.451546 0.12209 0.289706
14897 5 0.411503 0.059542 0.285101
14892 5 0.411658 0.118193 0.284135
14866 1 0.480844 0.0879222 0.290208
14814 1 0.47534 0.0233656 0.289233
14873 5 0.473179 0.0229053 0.269739
14876 5 0.473098 0.0850331 0.270553
14815 1 0.411194 0.0554527 0.266174
14943 1 0.403418 0.120281 0.265489
14954 5 0.435179 0.087876 0.266403
17412 6 0.387034 0.0252455 0.308759
14869 2 0.458078 0.0930426 0.261851
14872 5 0.433667 0.016935 0.266408
14867 2 0.456452 0.0152621 0.261265
14948 4 0.458734 0.11785 0.259706
14860 6 0.483435 0.0905956 0.310899
17380 7 0.395744 0.0125209 0.311111
17379 7 0.398911 0.0358382 0.308701
14870 5 0.456018 0.032124 0.252653
14875 4 0.455766 0.0769183 0.252285
15286 9 0.424518 0.0685926 0.310016
14828 7 0.496985 0.0992594 0.309604
25299 5 0.0543946 0.159548 0.253183
25296 2 0.0566094 0.145517 0.26311
25241 1 0.0783089 0.149655 0.291261
25249 3 0.0243056 0.182791 0.306031
25360 6 0.0839874 0.214623 0.309282
25320 4 0.0273133 0.213214 0.291827
25317 2 0.0246538 0.237887 0.292406
25295 1 0.0783861 0.213845 0.287971
25250 5 0.0524959 0.179181 0.291155
25244 2 0.0295502 0.188848 0.294211
25325 5 0.010293 0.179931 0.286974
25302 5 0.0748367 0.153072 0.270583
25305 5 0.0693779 0.215489 0.268831
22742 1 0.103919 0.18231 0.268691
25301 5 0.0330242 0.150474 0.266896
25242 1 0.00623345 0.179278 0.266795
25376 5 0.027709 0.218352 0.264524
25298 2 0.0509274 0.220255 0.26091
25289 6 0.085944 0.147518 0.31155
25498 9 0.023662 0.195839 0.310686
25371 4 0.0548206 0.244778 0.258235
22690 1 0.105466 0.240718 0.263937
22695 5 0.11236 0.184003 0.287556
22773 5 0.108852 0.245421 0.28403
25499 9 0.0229059 0.237876 0.309821
25331 7 0.0968533 0.224816 0.308113
22697 3 0.123205 0.239463 0.303498
25304 4 0.0489782 0.204155 0.252089
25330 7 0.0929987 0.200887 0.309876
16837 7 0.313327 0.0128069 0.402761
22693 3 0.121005 0.18159 0.307558
25321 5 0.00666637 0.245665 0.284337
25322 5 0.0481845 0.245396 0.29035
22945 9 0.115456 0.168387 0.310801
25319 3 0.0151595 0.244793 0.303627
22694 4 0.131069 0.150683 0.295439
25254 7 0.0967344 0.135716 0.312399
20070 3 0.22737 0.123562 0.307479
22679 3 0.158053 0.142859 0.251141
22747 5 0.154006 0.219688 0.251856
22691 2 0.129161 0.176561 0.295908
22748 4 0.158103 0.181328 0.259226
22674 2 0.155612 0.156836 0.261927
22754 5 0.134094 0.149887 0.266655
20202 5 0.233359 0.211856 0.262376
22672 1 0.180952 0.150158 0.288764
20142 4 0.230001 0.213727 0.291284
20147 5 0.213555 0.179445 0.285221
22696 5 0.15302 0.182214 0.293541
20074 3 0.227739 0.180296 0.304223
20069 2 0.230836 0.188428 0.292537
22689 1 0.178609 0.212227 0.288998
20392 9 0.231495 0.19124 0.30933
20139 2 0.228487 0.238743 0.291448
20067 1 0.208768 0.18172 0.265693
22680 5 0.174967 0.149746 0.268714
22750 5 0.17478 0.211799 0.269479
22749 5 0.132341 0.206929 0.266545
20125 5 0.233919 0.145392 0.262578
22744 2 0.156362 0.206278 0.261819
22737 6 0.188427 0.204093 0.308711
22736 6 0.192036 0.152758 0.309646
22698 5 0.151965 0.241147 0.289126
20190 1 0.201317 0.244382 0.264314
20393 9 0.230005 0.232312 0.308126
20143 5 0.210361 0.248313 0.284418
22704 7 0.205226 0.144927 0.311676
20141 3 0.226547 0.245125 0.303813
22702 7 0.202572 0.206679 0.312718
22705 7 0.1993 0.166133 0.308268
20144 5 0.25103 0.248046 0.28779
19407 7 0.207597 0.00474972 0.405132
17441 2 0.329014 0.125073 0.292296
20075 5 0.253978 0.179522 0.288309
17572 4 0.357117 0.182916 0.258946
20126 5 0.274422 0.154732 0.265802
20066 1 0.27684 0.147641 0.287212
17516 2 0.329324 0.174968 0.293801
17518 3 0.329341 0.183427 0.305454
20114 6 0.286598 0.217384 0.308552
17519 4 0.32618 0.149246 0.294582
17521 5 0.35197 0.177847 0.28876
20120 1 0.281715 0.213615 0.287628
17520 5 0.309983 0.183426 0.286736
17595 5 0.308866 0.241081 0.287845
17567 1 0.300885 0.182022 0.266602
20128 5 0.276069 0.211123 0.266321
17577 5 0.33309 0.149097 0.262602
17573 5 0.331959 0.213394 0.26522
17498 2 0.355782 0.157646 0.259243
20121 2 0.257721 0.143947 0.258691
17569 2 0.354645 0.20772 0.26125
20122 2 0.257337 0.217803 0.25904
20196 4 0.257962 0.243566 0.257259
20113 6 0.270896 0.150628 0.308043
17523 5 0.350892 0.240831 0.28968
17515 1 0.307722 0.244351 0.265602
17522 3 0.32664 0.243855 0.306016
17839 9 0.316019 0.19077 0.307286
20079 7 0.30051 0.225236 0.308056
17530 7 0.354407 0.204275 0.310119
17529 7 0.361443 0.227366 0.314024
17561 6 0.367436 0.213818 0.310298
20082 7 0.259486 0.139743 0.309272
17574 5 0.373765 0.217167 0.267605
20081 7 0.260392 0.163024 0.306726
17514 1 0.375135 0.215014 0.28948
15305 9 0.367761 0.152161 0.312069
17838 9 0.316861 -0.000179964 0.310182
17505 5 0.374196 0.149407 0.266229
14890 5 0.419896 0.12795 0.301725
15020 4 0.454263 0.247889 0.262567
14945 2 0.454981 0.142848 0.25965
14886 1 0.406225 0.183213 0.264531
14894 3 0.381219 0.1472 0.306916
14972 5 0.409685 0.18897 0.283652
14896 5 0.450042 0.182588 0.29096
14888 8 0.410257 0.149373 0.309942
12342 3 0.483764 0.212517 0.308588
14895 4 0.417038 0.170461 0.30059
14964 2 0.426114 0.238305 0.297484
14967 4 0.422467 0.212477 0.298619
14889 2 0.425388 0.18802 0.293419
17496 1 0.383242 0.15273 0.286987
14944 1 0.481386 0.214811 0.289748
14885 1 0.473049 0.150725 0.289062
14953 5 0.472892 0.216124 0.270047
14936 6 0.475977 0.151343 0.309384
14950 5 0.469712 0.152495 0.268212
15025 5 0.431746 0.215435 0.264109
14949 5 0.431306 0.146977 0.263195
14946 2 0.455508 0.22249 0.261513
15015 1 0.403086 0.244737 0.269558
14969 5 0.450176 0.243133 0.294357
14968 5 0.408894 0.245329 0.288965
14966 3 0.424478 0.250045 0.308662
14900 7 0.46253 0.151832 0.314184
25183 7 0.0824 0.0283225 0.31808
25256 7 0.0706344 0.0749863 0.314904
24544 6 0.0809843 0.0273375 0.337316
24654 7 0.0994549 0.0958906 0.337153
24655 7 0.0855907 0.0806096 0.32988
24614 6 0.0910079 0.0818376 0.33761
24820 9 0.0372858 0.0496681 0.33562
24550 1 0.0878133 0.0852281 0.356925
24571 2 0.0363966 0.059524 0.351709
24576 3 0.029377 0.0431826 0.342538
24577 5 0.0587556 0.0520886 0.354885
24639 2 0.0343168 0.109745 0.35067
24643 4 0.0367567 0.0850764 0.348368
24644 5 0.0185425 0.113963 0.359841
24645 5 0.0571902 0.117253 0.353263
24649 5 0.0197793 0.0555015 0.360762
24568 1 0.0846453 0.0223393 0.357363
22022 5 0.118362 0.0563858 0.358159
22097 5 0.117799 0.11886 0.356966
24582 7 0.0705852 0.0182395 0.333307
24581 7 0.0740811 0.0410378 0.335278
25186 7 0.0502696 0.0732575 0.326859
25217 6 0.0542037 0.0580975 0.325056
25185 7 0.0445392 0.0546021 0.318986
22267 9 0.124073 0.0558025 0.335795
24819 9 0.0269208 0.00934944 0.341875
14607 9 0.436839 0.00633559 0.336396
19998 3 0.190916 0.019852 0.311666
22634 7 0.171211 0.108675 0.312146
22266 9 0.130408 0.014287 0.33784
22020 3 0.134443 0.0464282 0.339298
22024 3 0.123362 0.115409 0.336679
20391 9 0.227162 0.112656 0.313288
22633 7 0.174689 0.0868451 0.318807
20409 9 0.17995 0.0249393 0.3178
22032 7 0.199292 0.0409355 0.338054
22021 4 0.137639 0.024857 0.355578
20065 6 0.243601 0.0319815 0.324189
22631 7 0.165979 0.0726571 0.338315
22632 7 0.16329 0.0981511 0.341113
19714 9 0.224755 0.0772079 0.334617
22666 6 0.173466 0.0869962 0.336421
19468 3 0.229558 0.108282 0.335343
19398 3 0.222393 0.0630953 0.338865
19466 2 0.235791 0.111864 0.347456
19469 4 0.235711 0.0879735 0.352597
19393 2 0.233336 0.0627623 0.349905
19474 5 0.218124 0.0536081 0.358354
22016 1 0.183347 0.0861053 0.355696
22018 2 0.138171 0.0491097 0.351343
22023 5 0.160812 0.057957 0.354055
22025 5 0.155249 0.114396 0.350241