ITEM: TIMESTEP
380000
ITEM: NUMBER OF ATOMS
25520
ITEM: BOX BOUNDS pp pp pp
-3.8662154426915346e-01 6.0085165134269168e+01
-1.9422397706160537e+00 5.9112525044616582e+01
-1.2639609552333976e+01 1.1191534195833958e+02
ITEM: ATOMS id type xs ys zs
25182 6 0.106702 0.0181462 0.152112
25252 6 0.108516 0.0795958 0.149207
25214 3 0.035346 0.0388278 0.159955
25287 5 0.0325663 0.0497767 0.178025
25283 5 0.0740692 0.109985 0.169687
25282 5 0.032751 0.109559 0.176054
25281 4 0.0456451 0.080682 0.164938
25277 2 0.0494639 0.105775 0.167311
25215 5 0.0704203 0.0504877 0.171318
25209 2 0.0460263 0.0552843 0.168483
25188 1 0.103449 0.0796505 0.170019
25458 9 0.0392843 0.0442685 0.152983
25206 1 0.0970469 0.0203775 0.172869
2433 1 0.00289615 0.0181803 0.176273
25292 7 0.120158 0.0690342 0.148448
25219 7 0.116411 0.0301872 0.150266
25293 7 0.117495 0.0934061 0.148527
25280 5 0.0430355 0.12207 0.158777
25457 9 0.0441324 0.0040642 0.155632
25220 7 0.117558 0.00607339 0.150312
22735 5 0.129939 0.113253 0.169708
22660 5 0.131383 0.0495306 0.170148
22905 9 0.15953 0.0533212 0.148729
22662 3 0.14239 0.111654 0.151047
22658 3 0.145932 0.0481424 0.151928
22656 2 0.15185 0.0416613 0.164184
20112 5 0.232309 0.0436266 0.173064
22663 5 0.173227 0.111459 0.165211
22654 1 0.199123 0.0807863 0.16768
22661 5 0.173685 0.0520041 0.1676
22659 4 0.155205 0.017681 0.166409
22563 1 0.20284 0.0163484 0.172722
22629 6 0.214793 0.0161151 0.153661
22630 6 0.196932 0.078625 0.147272
22667 7 0.194879 0.0868301 0.14076
22668 7 0.206774 0.0679461 0.143944
20108 5 0.232501 0.111335 0.168877
22657 2 0.149887 0.120519 0.162491
22906 9 0.151122 0.11905 0.14604
22670 7 0.223898 0.0299338 0.155107
22669 7 0.226342 0.0040231 0.152486
20036 3 0.247483 0.0461636 0.15413
20106 3 0.244225 0.100577 0.151047
20352 9 0.252177 0.0595197 0.149246
20107 4 0.252743 0.0764428 0.16592
20353 9 0.256542 0.100287 0.146181
20104 2 0.25176 0.100778 0.162945
20031 2 0.252483 0.0513253 0.16596
20118 7 0.326353 0.0870789 0.151528
20117 7 0.316927 0.0650655 0.149028
20077 6 0.312407 0.0792129 0.151618
17480 3 0.3443 0.0443084 0.154748
17799 9 0.341434 0.0300697 0.151786
17478 2 0.350887 0.0407 0.167263
20109 5 0.274801 0.110938 0.165228
17482 5 0.331473 0.0479008 0.174242
20037 5 0.27541 0.0433175 0.168667
20011 1 0.302863 0.0792896 0.171181
20028 1 0.296844 0.0153091 0.172898
17481 4 0.353548 0.0161317 0.167667
25236 7 -6.38228e-05 0.0521978 0.237605
17560 5 0.331111 0.110131 0.171447
17484 3 0.350112 0.106411 0.153245
17479 2 0.350768 0.118101 0.164365
17483 5 0.373441 0.0514463 0.169179
17485 5 0.372937 0.111499 0.168912
17800 9 0.365525 0.104034 0.150427
15274 9 0.492706 0.161449 0.209256
17490 7 0.407863 0.0776003 0.143841
17489 7 0.414885 0.0974312 0.14927
17451 6 0.402738 0.0870793 0.149734
14856 3 0.450099 0.0456091 0.155625
15246 9 0.435333 0.0396694 0.154394
14929 4 0.446508 0.0812505 0.165388
14926 2 0.450335 0.106526 0.165556
14851 2 0.45 0.0568854 0.167377
14931 5 0.4741 0.10976 0.168905
14857 5 0.472922 0.0538491 0.171923
17476 1 0.396978 0.0819434 0.17096
14934 5 0.432836 0.0473833 0.174666
14930 5 0.431182 0.113184 0.17323
17384 1 0.403715 0.0173928 0.173988
17450 6 0.409828 0.0149876 0.15277
14928 3 0.44555 0.11712 0.154459
14826 6 0.493607 0.0230543 0.154262
14861 7 0.480364 0.0296376 0.151583
17492 7 0.422971 0.00707557 0.15196
17491 7 0.399566 0.00642903 0.148406
14848 1 0.499392 0.0207955 0.173683
25290 7 0.0998673 0.177145 0.155317
25353 3 0.0431619 0.241646 0.157866
2033 7 0.0515743 0.1396 0.13427
25253 6 0.100474 0.161416 0.153216
2032 7 0.0495054 0.166452 0.136603
1995 6 0.0397464 0.151238 0.136872
25275 1 0.096263 0.142868 0.171853
25278 8 0.0306274 0.145165 0.151729
22957 9 0.0901127 0.209286 0.150002
22732 3 0.103103 0.206801 0.155683
25285 4 0.0397323 0.165716 0.160506
25359 5 0.0352738 0.176417 0.178807
25356 5 0.0732117 0.239926 0.170654
25354 4 0.0502828 0.204656 0.166622
25351 2 0.050917 0.230421 0.168771
25286 5 0.0732353 0.172082 0.171335
25279 2 0.0496796 0.179845 0.168939
25259 1 0.101416 0.207459 0.174411
25355 5 0.0358578 0.238001 0.177902
25433 7 0.0519951 0.222344 0.134776
25394 6 0.0624637 0.220058 0.140734
25432 7 0.0691065 0.234982 0.141737
1933 1 0.00262405 0.14333 0.174211
25291 7 0.116558 0.159308 0.1527
2104 7 0.0179909 0.189693 0.154595
2065 6 0.00392146 0.19837 0.156131
25459 9 0.0481559 0.232279 0.151936
25284 3 -9.98069e-05 0.146482 0.155051
22741 7 0.223844 0.122551 0.14808
1963 7 0.148848 0.231658 0.135083
1962 7 0.150815 0.205084 0.132606
22740 7 0.224087 0.148991 0.147799
1927 6 0.140246 0.216793 0.136182
22726 8 0.132044 0.211366 0.151322
22730 5 0.132028 0.173295 0.17383
22700 6 0.214416 0.136188 0.149621
22636 1 0.202873 0.141789 0.169352
22729 4 0.150118 0.146348 0.162642
22733 4 0.143552 0.232666 0.159449
20188 7 0.189937 0.228306 0.151797
20189 7 0.215306 0.230801 0.153131
20148 6 0.203435 0.219724 0.152703
22728 5 0.14244 0.186403 0.157117
22725 2 0.150056 0.170817 0.165809
20178 5 0.236486 0.239765 0.175621
20183 5 0.232978 0.17461 0.171972
22723 1 0.19981 0.207174 0.172401
22731 5 0.173902 0.177195 0.169123
22734 5 0.174861 0.237386 0.170809
22807 5 0.134493 0.237924 0.177225
20110 3 0.244941 0.172289 0.15146
22727 2 0.15135 0.245363 0.169238
20354 9 0.236945 0.184579 0.147419
20176 5 0.247341 0.247935 0.15715
20177 4 0.24958 0.20749 0.16304
20105 2 0.249965 0.181503 0.163289
20173 2 0.252453 0.232001 0.166767
17555 4 0.345621 0.143001 0.162916
20102 1 0.296832 0.143623 0.169921
17554 3 0.347009 0.178324 0.151925
17801 9 0.339414 0.191852 0.152286
17558 3 0.343983 0.227431 0.156387
17552 2 0.348674 0.168052 0.163379
17556 5 0.330861 0.177808 0.170783
20111 5 0.27263 0.172457 0.167179
20084 1 0.305779 0.20751 0.171466
20179 5 0.277008 0.237891 0.168416
17631 5 0.334784 0.240755 0.174856
17559 5 0.373731 0.236653 0.167481
17557 5 0.371512 0.173392 0.167225
17553 2 0.349761 0.244626 0.165171
17802 9 0.345231 0.235119 0.149123
15247 9 0.448953 0.132786 0.15433
12328 7 0.421125 0.162067 0.236804
17565 7 0.419524 0.132782 0.149762
17563 7 0.381685 0.190852 0.14913
17566 7 0.421423 0.158222 0.150195
17564 7 0.377618 0.214593 0.149568
14938 7 0.462509 0.201103 0.145723
14937 7 0.457343 0.206725 0.134162
17525 6 0.410934 0.145802 0.15042
17459 1 0.402312 0.145274 0.171318
17526 6 0.389618 0.205249 0.149279
14899 6 0.468822 0.207866 0.139623
15248 9 0.464595 0.166217 0.148815
15002 3 0.448857 0.238212 0.151657
14932 3 0.45089 0.166148 0.153473
15000 2 0.45201 0.229577 0.163456
15003 4 0.451238 0.204946 0.162244
14927 2 0.45293 0.180069 0.163878
15005 5 0.475347 0.235628 0.16772
14933 5 0.474425 0.174692 0.169114
15004 5 0.433094 0.237398 0.170905
17550 1 0.397136 0.20568 0.169242
15008 5 0.433884 0.173218 0.171506
15249 9 0.457789 0.22858 0.14659
14924 1 0.498538 0.141816 0.172651
15011 7 0.49674 0.207421 0.145343
22920 9 0.165906 0.12702 0.248586
25237 7 0.010029 0.0309943 0.241348
25471 9 0.0716153 0.0144727 0.243147
25198 5 0.0984156 0.0806397 0.192326
25195 5 0.0957813 0.0202055 0.192977
25268 5 0.0571594 0.0783513 0.195775
25258 1 0.0289672 0.11336 0.195552
25207 1 0.029233 0.0501686 0.198429
25191 2 0.0792582 0.087808 0.199545
25263 4 0.0809158 0.113204 0.200141
25197 4 0.0793505 0.0779293 0.210326
25192 5 0.0768267 0.0319797 0.210117
25196 3 0.0389294 0.0470691 0.217301
25190 8 0.0692611 0.0545545 0.21806
25510 9 0.0274711 0.0489199 0.223345
25517 7 0.090523 0.071489 0.234001
25240 6 0.0869119 0.0551328 0.230758
22685 7 0.0890723 0.0974433 0.219015
25506 7 0.0832896 0.045612 0.237529
22649 6 0.0971897 0.107298 0.224502
25194 5 0.0545895 0.0135057 0.19828
25189 2 0.0786355 0.0143551 0.202193
25201 6 0.00885705 0.0457899 0.243725
22684 7 0.0854864 0.111874 0.228988
25270 6 0.05597 0.116486 0.234902
25310 7 0.0599718 0.102983 0.238906
25271 7 0.0334425 0.114339 0.222151
25308 6 0.0250095 0.109746 0.21595
22958 9 0.128839 0.104773 0.216183
22687 7 0.128822 0.026581 0.239507
25269 6 0.00534014 0.115628 0.24556
25227 3 0.0694865 0.0269867 0.248585
22635 1 0.125297 0.0516445 0.19251
20061 7 0.123889 0.089958 0.233571
25203 7 0.0554294 0.000757227 0.228539
22717 6 0.110662 0.121229 0.245583
22760 7 0.110158 0.125256 0.238356
25272 7 0.0124277 0.119526 0.215747
22682 6 0.130598 0.000925841 0.216303
22675 3 0.162783 0.0943954 0.248398
20062 7 0.13295 0.0665988 0.234551
22648 6 0.136995 0.0331808 0.233755
22651 7 0.147542 0.0635763 0.211505
20023 6 0.137273 0.0820765 0.231592
22683 6 0.133511 0.054986 0.212966
22650 7 0.130353 0.0594878 0.220304
22643 5 0.197597 0.0830459 0.188729
22572 5 0.193094 0.0158145 0.192594
22686 7 0.141626 0.0203453 0.229826
20083 1 0.223178 0.110664 0.190157
20134 7 0.22211 0.0630803 0.239355
22919 9 0.157441 0.0849381 0.242332
22655 1 0.132136 0.112978 0.191036
20029 1 0.229977 0.0489007 0.193996
22642 5 0.156743 0.0787225 0.191732
20063 7 0.181724 0.0629741 0.217991
22637 2 0.179427 0.0749517 0.196524
22641 4 0.179441 0.0510259 0.200079
22565 2 0.176881 0.0257027 0.200194
22640 5 0.181419 0.0880168 0.207434
20060 6 0.224318 0.0505834 0.213768
20022 6 0.1828 0.0532539 0.224649
20064 7 0.167095 0.0499664 0.225924
22647 5 0.154368 0.0188859 0.196199
20096 6 0.210822 0.05997 0.244402
22571 3 0.179108 0.0183711 0.212127
22638 8 0.170259 0.112801 0.214027
22918 9 0.156217 0.0276035 0.243258
22965 7 0.169835 0.112444 0.234809
22644 3 0.139902 0.108992 0.209989
22688 6 0.179278 0.118782 0.228421
20132 7 0.226836 0.109697 0.24382
20135 7 0.198747 0.0556202 0.239763
20025 7 0.232225 0.0412637 0.219546
20133 7 0.20297 0.109014 0.239701
20097 6 0.212046 0.112422 0.246281
20131 6 0.224689 0.105889 0.210564
20024 7 0.208564 0.0481115 0.21557
20099 7 0.228746 0.103211 0.217685
22931 9 0.181876 0.0321559 0.216962
17471 6 0.241464 0.0204473 0.228447
22653 7 0.143433 0.0106224 0.216254
20098 7 0.212176 0.0954684 0.208673
17509 7 0.236473 0.00774603 0.224429
22608 3 0.166425 0.0203265 0.248321
20130 6 0.240504 0.101957 0.231352
20101 7 0.245427 0.0890502 0.235604
20365 9 0.262323 0.0240911 0.242011
20008 7 0.194247 0.0080586 0.244713
17456 7 0.319751 0.0715153 0.249321
20056 3 0.264601 0.0846148 0.247769
17860 7 0.366312 0.00595967 0.226496
20100 7 0.254223 0.11123 0.232701
17510 7 0.256266 0.0213312 0.225603
20020 5 0.295681 0.0760217 0.193142
20017 5 0.29236 0.0185428 0.193035
20016 5 0.252918 0.0197978 0.198137
17477 1 0.327616 0.111272 0.192452
17458 1 0.32362 0.0484494 0.194289
20095 5 0.253979 0.0789715 0.194778
17464 5 0.352496 0.0821121 0.194926
20013 2 0.276958 0.0858927 0.199554
20379 9 0.266789 0.0827782 0.215593
20089 4 0.278304 0.111152 0.200338
20019 3 0.276248 0.0743895 0.211055
20378 9 0.27786 0.0415052 0.211297
17466 6 0.319952 0.0481158 0.214363
17493 7 0.308546 0.0380609 0.216955
17494 7 0.322567 0.056675 0.220929
14960 7 0.328668 0.095391 0.223351
14918 6 0.326232 0.0884143 0.230419
14959 7 0.34098 0.0908367 0.234055
17469 5 0.354085 0.0160368 0.198136
17457 7 0.309977 0.0690142 0.238644
20014 3 0.280888 0.0255962 0.212135
20012 2 0.275838 0.0124384 0.2016
17503 6 0.311204 0.061548 0.245259
17499 3 0.364465 0.0920647 0.24571
17472 7 0.316975 0.126953 0.218
17548 7 0.289945 0.105657 0.220047
17578 6 0.283522 0.118251 0.223982
20366 9 0.279479 0.0815113 0.245851
14846 7 0.370307 0.0480575 0.229746
17544 6 0.306758 0.120254 0.243527
20051 3 0.270092 0.0299705 0.248424
17582 7 0.314528 0.107261 0.240624
17813 9 0.377782 0.100745 0.246361
14875 4 0.457476 0.0755621 0.24929
14847 7 0.372351 0.0736931 0.23298
17463 4 0.374537 0.050299 0.199497
15272 9 0.482523 0.00829222 0.218636
17460 2 0.375549 0.0747792 0.198495
17462 3 0.37855 0.0843285 0.210351
14878 6 0.378125 0.062002 0.228166
17386 2 0.377194 0.0253653 0.200753
17826 9 0.378253 0.0716116 0.215429
17825 9 0.396118 0.0278015 0.215001
14838 5 0.493101 0.022776 0.193151
17465 5 0.392197 0.0811657 0.189911
17391 3 0.383552 0.0206527 0.21288
14906 1 0.423694 0.111742 0.193866
17392 5 0.395536 0.017493 0.193779
14849 1 0.4312 0.0502819 0.195151
14917 5 0.454237 0.0788456 0.198085
14837 5 0.453999 0.0190542 0.200131
14911 4 0.476168 0.113389 0.200758
14834 2 0.477241 0.0884433 0.201569
14839 3 0.481937 0.0829419 0.213786
14955 6 0.417431 0.0541541 0.213979
15273 9 0.477429 0.0955082 0.21821
14922 7 0.430989 0.0553307 0.218962
14923 7 0.405989 0.0602649 0.218736
15308 7 0.472523 0.053247 0.223708
14884 6 0.457827 0.0474601 0.226672
15297 7 0.45693 0.0295959 0.224258
15303 9 0.406149 0.0528127 0.238534
14868 8 0.449167 0.0522172 0.241263
14835 3 0.488077 0.0190245 0.213371
14874 3 0.418453 0.0549401 0.244312
14833 2 0.478354 0.0127919 0.201948
14951 6 0.404754 0.123375 0.243809
14914 6 0.418853 0.106486 0.213881
14840 5 0.495462 0.080616 0.194576
12366 6 0.478935 0.118394 0.22753
14904 7 0.414074 0.133404 0.238298
17827 9 0.376462 0.123146 0.211074
14941 7 0.419131 0.112293 0.221169
14942 7 0.40537 0.0978895 0.214064
12408 7 0.47232 0.127154 0.232552
12407 7 0.480972 0.128664 0.221045
20055 6 0.207674 0.0012781 0.246089
25343 6 0.00349788 0.240354 0.241741
22759 7 0.122279 0.13133 0.247404
25309 7 0.0513018 0.125735 0.240742
25381 7 0.00343456 0.24383 0.234017
25484 9 0.0925854 0.127362 0.216539
25267 5 0.0979254 0.204856 0.194934
25265 5 0.0971687 0.145335 0.192966
25348 7 0.0294539 0.172695 0.223993
25347 7 0.00912907 0.167118 0.216576
25512 9 0.00806353 0.178827 0.237702
25303 3 0.0190038 0.176264 0.244088
25260 2 0.0800843 0.138144 0.201561
25264 5 0.0568187 0.145652 0.199573
25332 1 0.0268596 0.236843 0.197072
25276 1 0.0323348 0.17664 0.196735
25342 5 0.0577307 0.205457 0.200166
25337 4 0.0811386 0.238086 0.204262
25261 2 0.0805857 0.212274 0.203305
25266 3 0.0857929 0.201812 0.214829
25262 3 0.088583 0.142366 0.21318
25485 9 0.100947 0.197208 0.214884
22720 7 0.114085 0.160547 0.214746
25377 6 0.0251359 0.170103 0.216115
25507 7 0.0713808 0.183595 0.224076
25518 7 0.065805 0.156732 0.224285
25314 6 0.0644537 0.170859 0.229
25297 8 0.0502434 0.174678 0.242505
22718 6 0.106883 0.167474 0.242948
22830 7 0.071059 0.233037 0.222674
22791 6 0.0638649 0.242708 0.227931
22829 7 0.0657492 0.236415 0.235281
25378 6 0.0224009 0.238988 0.217283
22757 7 0.0960703 0.156514 0.23944
22751 3 0.1199 0.236691 0.24224
22756 6 0.12392 0.173531 0.213376
22758 7 0.119847 0.169709 0.237387
22825 6 0.124128 0.237349 0.21584
22796 7 0.109869 0.229465 0.218191
20009 7 0.217413 0.00404336 0.239914
25205 7 0.00788762 0.00346574 0.218866
25345 7 0.0348147 0.235687 0.222331
22960 9 0.108994 0.244789 0.237334
22706 1 0.125897 0.174949 0.192012
22719 7 0.135021 0.17159 0.218596
22795 7 0.135456 0.231711 0.221192
22954 7 0.182788 0.13582 0.230521
22679 3 0.165207 0.142567 0.248691
22646 5 0.196954 0.14367 0.189557
22713 5 0.195997 0.206022 0.191732
20103 1 0.230362 0.173287 0.190147
22716 5 0.155589 0.140952 0.191521
20154 1 0.226359 0.235052 0.194588
22724 1 0.131495 0.236655 0.19725
22722 7 0.152665 0.187386 0.235225
22645 4 0.176743 0.136502 0.206482
22712 5 0.15526 0.208912 0.197681
22639 2 0.176764 0.149485 0.196388
22708 2 0.177749 0.19968 0.200028
22711 4 0.175332 0.174599 0.198522
22710 3 0.184555 0.204383 0.212001
22932 9 0.185032 0.189537 0.215977
20167 7 0.209033 0.227871 0.219781
20204 6 0.221309 0.232812 0.214388
20092 3 0.236297 0.170987 0.210174
22721 7 0.151014 0.163544 0.239302
20406 9 0.223128 0.170477 0.215111
22966 7 0.171508 0.216895 0.225163
22745 8 0.150708 0.237635 0.241186
20166 6 0.187878 0.167998 0.222844
20206 7 0.17463 0.165329 0.227836
22755 6 0.148475 0.173043 0.232775
20205 7 0.18646 0.155524 0.217799
22762 6 0.169775 0.232618 0.228848
20169 7 0.204005 0.184696 0.235751
20203 6 0.202525 0.182478 0.243451
20170 7 0.187873 0.176641 0.244338
20168 7 0.230177 0.242654 0.219386
22955 7 0.173463 0.24515 0.222958
17508 6 0.327792 0.123963 0.212291
17583 7 0.294569 0.122241 0.238082
17854 9 0.324437 0.217627 0.215891
17504 3 0.364542 0.14409 0.248545
17549 7 0.281108 0.128269 0.218078
17473 7 0.340267 0.13508 0.213126
17651 6 0.28031 0.247307 0.233381
20367 9 0.28184 0.149524 0.24691
20368 9 0.267539 0.219657 0.241417
20123 3 0.266294 0.147635 0.247896
20091 5 0.29319 0.142397 0.188861
20094 5 0.294311 0.206708 0.189661
20127 3 0.263636 0.206968 0.246153
17571 3 0.364209 0.205862 0.245651
17531 1 0.323132 0.172759 0.192419
20090 5 0.253396 0.136905 0.191356
17551 1 0.329907 0.234806 0.194014
17538 5 0.354848 0.20466 0.193605
20164 5 0.255381 0.202544 0.192145
17543 5 0.353495 0.144753 0.194845
20085 2 0.27618 0.13536 0.196883
20086 8 0.266143 0.173468 0.214454
20087 2 0.275655 0.211929 0.197573
20159 4 0.277891 0.235959 0.200748
20088 5 0.273405 0.150948 0.206297
20093 4 0.275619 0.195993 0.206539
17547 7 0.320858 0.173505 0.218451
17540 3 0.333862 0.230908 0.212368
17579 6 0.329282 0.176351 0.212437
17546 7 0.34397 0.176415 0.215696
20136 6 0.277109 0.173561 0.229235
20413 7 0.269284 0.184399 0.234808
20402 7 0.276139 0.158184 0.232936
17534 8 0.362608 0.23539 0.215414
17580 7 0.337029 0.229742 0.24077
17545 6 0.325721 0.240355 0.242127
17815 9 0.361111 0.191384 0.242277
17814 9 0.358684 0.152667 0.243229
15026 6 0.366369 0.176385 0.227992
14996 7 0.374575 0.168422 0.222812
17618 7 0.296794 0.247305 0.233086
15027 6 0.422237 0.244578 0.213456
17467 3 0.375274 0.139298 0.211484
14997 7 0.377052 0.181618 0.232644
14908 2 0.475249 0.138078 0.200121
14905 7 0.388793 0.126649 0.241892
17468 5 0.39608 0.140167 0.193184
14979 1 0.423905 0.233669 0.191806
14991 5 0.454549 0.208877 0.194881
17850 7 0.379538 0.223484 0.233606
14952 3 0.473024 0.209012 0.247283
15262 9 0.479302 0.222524 0.243665
14925 1 0.429457 0.173852 0.19204
14957 7 0.396113 0.198921 0.243973
14992 6 0.417966 0.239319 0.245112
12329 7 0.442424 0.149566 0.235296
15030 7 0.434135 0.239851 0.243407
14910 3 0.480759 0.150754 0.210799
17533 2 0.377597 0.199018 0.198333
14909 2 0.477895 0.212737 0.198676
14916 5 0.495586 0.203294 0.191241
17536 5 0.373708 0.212441 0.207877
17461 2 0.376672 0.149273 0.200061
17584 6 0.378783 0.238174 0.229014
14958 7 0.420411 0.198707 0.24622
15031 7 0.414837 0.237882 0.237322
14913 5 0.493978 0.145635 0.192201
14956 6 0.432565 0.18134 0.213246
14912 5 0.453258 0.146603 0.195525
14920 7 0.429901 0.179473 0.220455
14919 6 0.409136 0.189744 0.242519
17537 4 0.382485 0.173838 0.20003
17539 5 0.394998 0.207782 0.190439
15261 9 0.479245 0.158515 0.245969
14921 7 0.444788 0.170616 0.212591
12291 6 0.427861 0.15073 0.232343
12353 7 0.491169 0.186856 0.243265
15275 9 0.467193 0.20668 0.214504
14985 4 0.481471 0.238036 0.198285
14947 3 0.466222 0.149002 0.245966
14915 3 0.481031 0.207358 0.210983
20207 7 0.201883 0.248549 0.237362
17861 7 0.373966 0.249654 0.235263
14994 7 0.407118 0.245495 0.215607
25304 4 0.0598631 0.198093 0.24974
25178 3 0.0268899 0.0412825 0.300754
25245 3 0.0257031 0.115676 0.305448
25251 5 0.0165274 0.0537971 0.282141
25246 4 0.032297 0.0813337 0.294933
25243 2 0.0329738 0.107632 0.294486
25224 1 0.0861434 0.0842554 0.289276
25179 5 0.0568724 0.0526247 0.288495
25173 2 0.0331434 0.0578545 0.291445
25170 1 0.08316 0.0219729 0.28821
25232 5 0.0785913 0.0822918 0.26934
25230 5 0.0797041 0.02491 0.267221
22671 1 0.109836 0.0539026 0.26727
25171 1 0.0120109 0.0539471 0.263601
25229 5 0.0379447 0.022921 0.261557
25294 1 0.00742828 0.112304 0.266261
25306 5 0.0395457 0.0817628 0.26266
25226 2 0.0628074 0.0887356 0.259962
25225 2 0.0618951 0.0169229 0.259221
25496 9 0.032234 0.0472172 0.307372
25288 6 0.097579 0.0862374 0.30912
25497 9 0.0130583 0.107432 0.308312
22619 1 0.112561 0.116888 0.265498
25300 4 0.0626417 0.114121 0.258586
25248 5 0.0553651 0.119044 0.292486
22699 5 0.116709 0.111252 0.286207
22624 5 0.117728 0.0537771 0.286721
25218 6 0.0850353 0.0310896 0.308552
25247 5 0.0151803 0.113753 0.286307
25495 9 0.0237692 0.0121286 0.305325
25256 7 0.107246 0.0742457 0.307688
25254 7 0.0638179 0.131306 0.305031
25257 7 0.10724 0.097382 0.311199
25183 7 0.100634 0.0354145 0.309118
17838 9 0.328193 0.00095211 0.309145
25472 9 0.0724843 0.0612759 0.251011
22626 3 0.13059 0.120444 0.304734
22622 3 0.131287 0.0546336 0.306056
22623 4 0.138112 0.0205821 0.295046
22681 5 0.138574 0.0291533 0.262079
22620 2 0.135796 0.0466381 0.294686
19999 4 0.224298 0.0426681 0.300205
19993 2 0.231089 0.0598248 0.292196
20068 2 0.234001 0.109735 0.294814
20071 4 0.228617 0.0849783 0.29532
22625 5 0.158759 0.0547729 0.291078
22627 5 0.158715 0.11346 0.290546
22618 1 0.18192 0.0830401 0.287633
20076 5 0.215683 0.0551778 0.282579
22600 1 0.189265 0.0216384 0.28799
22609 5 0.178642 0.0205443 0.267855
22678 5 0.176943 0.0890676 0.26828
19990 1 0.214057 0.0541581 0.264885
22677 5 0.137283 0.0839418 0.262458
20129 5 0.239034 0.0833861 0.263184
20053 5 0.23742 0.0246837 0.262613
22602 2 0.162973 0.0316297 0.25977
22673 2 0.160752 0.0811988 0.259185
22676 4 0.167154 0.0568774 0.258851
19998 3 0.189782 0.0149139 0.306181
19992 8 0.21982 0.0203269 0.308618
20119 1 0.210768 0.116409 0.266346
20072 5 0.216271 0.119459 0.2866
22621 2 0.135254 0.122819 0.292372
22944 9 0.142202 0.126894 0.308656
22943 9 0.145283 0.0571674 0.310145
20070 3 0.228793 0.117457 0.306466
20391 9 0.229994 0.105242 0.311117
20409 9 0.178245 0.0161343 0.31237
20000 5 0.254825 0.0557983 0.288943
17448 5 0.356917 0.118785 0.287168
17440 8 0.322724 0.0829915 0.308001
17446 3 0.290966 0.0812965 0.30618
17442 5 0.329438 0.0605819 0.299479
17447 4 0.329479 0.105328 0.30031
17443 4 0.335995 0.0216335 0.294277
17439 2 0.334795 0.0457262 0.290665
20048 1 0.28703 0.0840574 0.287242
19989 1 0.279105 0.022732 0.286058
17445 5 0.357737 0.0518431 0.287629
17444 5 0.315649 0.0489382 0.282538
20057 5 0.281414 0.0815045 0.266297
17495 1 0.306734 0.0524487 0.265066
17506 5 0.335489 0.0288848 0.263256
20054 5 0.276963 0.019219 0.266889
17438 1 0.312876 0.117307 0.264149
17501 5 0.336205 0.0874786 0.260112
17421 2 0.358828 0.0308844 0.258314
20050 2 0.261499 0.0909707 0.25965
20049 2 0.259829 0.016484 0.258165
17497 2 0.359096 0.0811166 0.256776
20040 6 0.291805 0.0347859 0.30455
17500 4 0.363155 0.0552573 0.255585
20073 5 0.257754 0.114541 0.291805
20124 4 0.26424 0.115943 0.261876
17524 5 0.31522 0.118309 0.283704
17441 2 0.333611 0.122651 0.291673
15287 9 0.42732 0.236709 0.310458
20005 7 0.307927 0.033297 0.302605
20004 7 0.290694 0.0501301 0.306911
17428 5 0.37823 0.0222829 0.265696
17380 7 0.400756 0.00574998 0.307268
17502 5 0.37631 0.0883991 0.26476
17437 1 0.381286 0.0857142 0.285178
14822 3 0.417996 0.0549094 0.301769
14891 4 0.436141 0.0855887 0.293512
14817 2 0.433259 0.0603915 0.291763
14887 2 0.4331 0.110348 0.290425
14823 5 0.456496 0.0505811 0.291311
17418 1 0.387606 0.0212376 0.285586
14893 5 0.456383 0.118998 0.28712
14897 5 0.417474 0.0550381 0.282574
14892 5 0.414289 0.112477 0.282735
14866 1 0.484426 0.0842409 0.287542
14814 1 0.480592 0.0204497 0.287015
14873 5 0.476849 0.0198134 0.267048
14876 5 0.478651 0.0800883 0.266109
14815 1 0.411455 0.0559974 0.264066
14943 1 0.408135 0.117299 0.264242
14954 5 0.438905 0.0863245 0.264358
17412 6 0.38997 0.0169675 0.306869
14869 2 0.46094 0.0898896 0.25906
14872 5 0.434269 0.0163368 0.263233
14867 2 0.458761 0.014915 0.259324
14948 4 0.46509 0.115117 0.257726
14860 6 0.485263 0.086142 0.308715
17379 7 0.399126 0.0303227 0.305076
15286 9 0.421637 0.0650686 0.307611
14890 5 0.426896 0.124165 0.300046
14903 7 0.424649 0.0927139 0.313263
14828 7 0.497923 0.0956957 0.309364
14870 5 0.458101 0.0310623 0.25014
25296 2 0.0588484 0.139088 0.261302
25241 1 0.0794545 0.148792 0.288752
25249 3 0.0235209 0.17676 0.300631
25360 6 0.0827159 0.210365 0.307684
25320 4 0.0281438 0.212956 0.290887
25317 2 0.0343156 0.237275 0.289436
25295 1 0.0879175 0.210752 0.286568
25250 5 0.0560759 0.18173 0.289151
25244 2 0.0310668 0.187623 0.289938
25325 5 0.0172647 0.17949 0.280819
25302 5 0.0775781 0.146353 0.268582
25305 5 0.0788031 0.210968 0.266146
22742 1 0.105402 0.177251 0.263456
25301 5 0.0349066 0.137798 0.265377
25242 1 0.0135919 0.178069 0.262803
25376 5 0.0365964 0.214029 0.262636
25298 2 0.0600685 0.215973 0.258494
25289 6 0.071579 0.14396 0.308446
25366 1 0.00652985 0.240023 0.26208
25498 9 0.015561 0.187046 0.305045
25371 4 0.0640118 0.240312 0.254767
22690 1 0.112779 0.23953 0.261572
22773 5 0.119366 0.239486 0.280769
25322 5 0.059297 0.23907 0.288131
22695 5 0.11383 0.180795 0.284979
25499 9 0.0325623 0.236482 0.306391
25321 5 0.0176335 0.246109 0.281541
25319 3 0.0300854 0.247574 0.300848
25330 7 0.0905869 0.223609 0.305155
25331 7 0.0717119 0.21718 0.312015
22697 3 0.118076 0.241728 0.300198
25299 5 0.0574726 0.153075 0.251346
22945 9 0.128902 0.159652 0.305657
22693 3 0.129288 0.17485 0.302559
22694 4 0.135673 0.147644 0.289346
22691 2 0.134776 0.172745 0.290292
22748 4 0.165352 0.177037 0.257894
22674 2 0.161004 0.151934 0.260006
22754 5 0.13709 0.145735 0.262518
20202 5 0.236261 0.21239 0.261193
22672 1 0.186189 0.147509 0.28764
20142 4 0.235885 0.212369 0.290504
20147 5 0.216512 0.179291 0.283144
22696 5 0.157143 0.183148 0.288878
20074 3 0.226655 0.181821 0.302959
20069 2 0.234252 0.186415 0.291141
22689 1 0.180465 0.212085 0.287433
20392 9 0.240342 0.181911 0.307428
20139 2 0.234599 0.236997 0.292243
20067 1 0.213249 0.17862 0.263859
22680 5 0.177926 0.144994 0.268392
22750 5 0.176826 0.21007 0.267784
22749 5 0.135118 0.201545 0.263313
20125 5 0.239186 0.150103 0.262999
22744 2 0.159136 0.201694 0.259968
22737 6 0.188976 0.209327 0.307238
22736 6 0.193382 0.149187 0.30751
22698 5 0.156822 0.241881 0.289707
20190 1 0.206902 0.242589 0.264659
20143 5 0.217176 0.244303 0.284083
22704 7 0.204555 0.137495 0.305157
20393 9 0.213665 0.233019 0.305392
20141 3 0.225022 0.243985 0.303682
22705 7 0.201995 0.162593 0.309186
22702 7 0.197986 0.196728 0.309068
22703 7 0.176596 0.207503 0.312638
22963 7 0.14054 0.195571 0.312622
22747 5 0.156818 0.215085 0.249953
22692 2 0.132428 0.249594 0.290322
20081 7 0.279372 0.140252 0.316189
20082 7 0.268749 0.129775 0.306486
17572 4 0.359363 0.178755 0.259468
20126 5 0.280813 0.151934 0.266404
20075 5 0.257617 0.17659 0.290288
20066 1 0.280566 0.146956 0.287297
17516 2 0.333579 0.172351 0.294213
17518 3 0.330309 0.182854 0.305768
20114 6 0.292377 0.208573 0.306089
17519 4 0.330843 0.146461 0.29544
17521 5 0.35692 0.178673 0.291474
20120 1 0.285016 0.21037 0.286177
17520 5 0.31538 0.180589 0.286715
17595 5 0.316727 0.238036 0.282799
17567 1 0.30991 0.182785 0.266357
20128 5 0.27681 0.208542 0.266299
17577 5 0.336854 0.146843 0.263856
17573 5 0.340358 0.21259 0.262091
17498 2 0.360636 0.153796 0.260037
20121 2 0.262486 0.141713 0.260084
17569 2 0.36225 0.203469 0.258284
20122 2 0.259524 0.217139 0.25787
20196 4 0.26411 0.2427 0.257828
20113 6 0.278898 0.140683 0.308076
17523 5 0.358454 0.237369 0.287727
17515 1 0.312648 0.241613 0.262864
17839 9 0.336384 0.173536 0.311157
17840 9 0.319606 0.230242 0.303551
20144 5 0.257936 0.246794 0.289961
17522 3 0.332048 0.240543 0.302921
17529 7 0.362566 0.201719 0.306657
17530 7 0.361998 0.225551 0.303962
20079 7 0.30177 0.194818 0.305836
17517 2 0.3355 0.245213 0.290615
17561 6 0.371357 0.21399 0.307606
20080 7 0.282223 0.20645 0.312452
15305 9 0.376981 0.145831 0.312714
14901 7 0.464941 0.156637 0.312255
15020 4 0.46354 0.241655 0.25975
17505 5 0.379822 0.146429 0.26681
17574 5 0.383577 0.212114 0.263458
17514 1 0.38191 0.207924 0.287738
14945 2 0.461292 0.139815 0.25736
14886 1 0.415068 0.180088 0.262686
14894 3 0.388926 0.145215 0.307111
14972 5 0.417518 0.181831 0.280433
14896 5 0.45606 0.179391 0.289069
14888 8 0.419492 0.146303 0.307851
12342 3 0.491294 0.210363 0.305629
14895 4 0.424216 0.169134 0.299132
14964 2 0.431596 0.234703 0.294131
14967 4 0.429378 0.2085 0.295012
14889 2 0.431636 0.185077 0.290689
17496 1 0.388845 0.147949 0.287756
14944 1 0.487922 0.212969 0.28762
14885 1 0.480724 0.14968 0.28617
14953 5 0.47945 0.209324 0.267184
14936 6 0.473651 0.157709 0.305616
14950 5 0.477179 0.149197 0.265754
15025 5 0.439412 0.209689 0.258687
14949 5 0.438701 0.145781 0.261606
14946 2 0.462793 0.217039 0.258285
15015 1 0.409586 0.240899 0.264726
14969 5 0.455814 0.242154 0.291213
14968 5 0.413242 0.242121 0.286339
14900 7 0.466081 0.170428 0.301102
14966 3 0.426397 0.2466 0.305035
16930 1 0.417596 0.238577 0.466284
25184 7 0.0777825 0.037119 0.314965
24544 6 0.0740378 0.0276707 0.333654
24654 7 0.0984177 0.0948485 0.332338
24655 7 0.0865456 0.0799938 0.32575
24614 6 0.0908208 0.0813935 0.333178
24820 9 0.0293547 0.0589384 0.333773
24550 1 0.0860331 0.086392 0.353508
24571 2 0.0333548 0.0581994 0.350559
24576 3 0.0301654 0.047858 0.339367
24577 5 0.0557999 0.0497897 0.354115
24639 2 0.0344599 0.109187 0.35022
24643 4 0.0347868 0.0836713 0.348276
24644 5 0.0182918 0.112383 0.359328
24645 5 0.0577476 0.116233 0.35331
24649 5 0.0158094 0.0528566 0.358759
24568 1 0.0820408 0.0207985 0.354057
22022 5 0.113662 0.0561444 0.354413
22097 5 0.119379 0.116366 0.354579
24582 7 0.0701531 0.0154976 0.328378
24581 7 0.0596918 0.0347627 0.334662
22267 9 0.121271 0.0561733 0.334076
24642 5 0.027399 0.122513 0.341026
24560 5 0.0815503 0.0871752 0.372431
24557 5 0.0827121 0.0251422 0.375875
22017 1 0.1155 0.115176 0.373564
22266 9 0.13015 0.0110173 0.335811
22020 3 0.133579 0.047078 0.336214
22024 3 0.133344 0.112488 0.335253
22633 7 0.175849 0.0391242 0.324034
22665 6 0.167293 0.0499904 0.320074
22634 7 0.153354 0.0509453 0.324302
22032 7 0.209606 0.0133068 0.335512
22021 4 0.135216 0.020994 0.352242
20065 6 0.239525 0.0230698 0.320576
22631 7 0.180002 0.0728422 0.327078
22632 7 0.197188 0.092201 0.32908
19714 9 0.233423 0.0716897 0.333747
22666 6 0.182879 0.0858465 0.331814
19468 3 0.228687 0.106047 0.334906
19398 3 0.233696 0.0567778 0.337002
19466 2 0.238522 0.107687 0.347034
19469 4 0.237705 0.0838303 0.350604
19393 2 0.236585 0.0583266 0.349065
19474 5 0.216969 0.0484095 0.355574
22016 1 0.182654 0.0844445 0.351629
22018 2 0.13425 0.0460494 0.348868
22023 5 0.157549 0.0547426 0.351759
22025 5 0.159893 0.116145 0.350812
21925 1 0.187805 0.0220104 0.355188
21991 6 0.197503 0.0239411 0.334769
22031 7 0.206397 0.0368619 0.334255
20416 7 0.242506 0.0384408 0.324134
19470 5 0.218816 0.11647 0.353575
20415 7 0.238059 0.0123796 0.327597