ITEM: TIMESTEP
546000
ITEM: NUMBER OF ATOMS
25520
ITEM: BOX BOUNDS pp pp pp
-3.9333134567374323e-01 6.0091874935674348e+01
-1.9490142578476479e+00 5.9119299531847695e+01
-1.2653429864821527e+01 1.1192916227083056e+02
ITEM: ATOMS id type xs ys zs
25182 6 0.105495 0.0220013 0.152735
25252 6 0.106488 0.0767682 0.15433
25214 3 0.0338731 0.0410014 0.158687
25287 5 0.0281636 0.0532892 0.177165
25283 5 0.0689101 0.112783 0.171438
25282 5 0.027691 0.11254 0.177408
25281 4 0.0430306 0.0817665 0.166159
25277 2 0.045212 0.107334 0.168872
25215 5 0.0693477 0.0500965 0.170945
25209 2 0.044508 0.0564897 0.167805
25188 1 0.0999804 0.0820877 0.173285
25458 9 0.0376899 0.0472234 0.15201
25206 1 0.0964468 0.0205234 0.172601
25292 7 0.1183 0.0643304 0.153223
25293 7 0.113446 0.0919791 0.154192
25219 7 0.118177 0.0253115 0.147384
25220 7 0.0958652 0.014113 0.148168
2433 1 0.00021539 0.0203599 0.174888
25457 9 0.0417097 0.00965423 0.157153
25280 5 0.0368301 0.122414 0.160044
22735 5 0.130446 0.115305 0.174419
22660 5 0.13221 0.0532045 0.174986
22905 9 0.155076 0.0580934 0.152656
22662 3 0.137258 0.111796 0.153672
22658 3 0.144234 0.0473117 0.155479
22656 2 0.151403 0.0439839 0.16761
20112 5 0.232114 0.0528479 0.17349
22663 5 0.170383 0.114097 0.167388
22654 1 0.196227 0.0858191 0.169218
22661 5 0.173354 0.0544894 0.170334
22659 4 0.153699 0.0189189 0.169109
22563 1 0.202654 0.0209417 0.174116
22629 6 0.210402 0.0154442 0.155394
22630 6 0.198592 0.0682718 0.150109
22667 7 0.211787 0.0645903 0.145526
22668 7 0.19391 0.0531966 0.151533
20108 5 0.231473 0.119051 0.170059
22670 7 0.218852 0.0281623 0.153155
20036 3 0.246993 0.0442764 0.155059
22657 2 0.146293 0.121543 0.164912
20031 2 0.250204 0.0584131 0.165143
20106 3 0.244866 0.117108 0.150543
20104 2 0.249591 0.108314 0.16227
20107 4 0.246502 0.0836745 0.162423
20353 9 0.244135 0.106176 0.145581
22906 9 0.143482 0.121059 0.148492
22669 7 0.219806 0.00251837 0.153544
20352 9 0.260304 0.0357356 0.153674
20118 7 0.320481 0.0687966 0.147992
20117 7 0.322064 0.0933726 0.149858
20077 6 0.311127 0.0816529 0.150022
17480 3 0.342659 0.0482161 0.154592
17799 9 0.354588 0.0430571 0.14981
17478 2 0.348888 0.0411377 0.166436
20109 5 0.272538 0.116118 0.165317
17482 5 0.330868 0.0503907 0.174033
20037 5 0.272397 0.0528693 0.169651
20011 1 0.301682 0.082515 0.170987
20028 1 0.2968 0.0196961 0.173574
17481 4 0.34497 0.0157684 0.167743
17560 5 0.328834 0.11171 0.171471
17484 3 0.347005 0.110376 0.153266
20003 6 0.286057 0.0132211 0.153512
20041 7 0.275753 0.00164166 0.157112
17479 2 0.348801 0.120017 0.164847
20042 7 0.293147 0.00486331 0.147984
17485 5 0.370794 0.112053 0.169415
17483 5 0.371688 0.0469074 0.169796
17800 9 0.342669 0.120042 0.147996
17489 7 0.405266 0.113495 0.152095
17490 7 0.383657 0.101026 0.154719
17451 6 0.400099 0.0990171 0.153953
14856 3 0.447455 0.0446434 0.157923
15246 9 0.461712 0.0372234 0.155734
14929 4 0.445403 0.0834412 0.165585
14926 2 0.446062 0.108408 0.168429
14851 2 0.449697 0.0583818 0.167897
14931 5 0.470489 0.113212 0.172321
14857 5 0.47289 0.0567339 0.172491
17476 1 0.395209 0.0828944 0.172884
14934 5 0.43141 0.0503693 0.175696
14930 5 0.429375 0.112262 0.177388
17384 1 0.400244 0.0195895 0.174951
17450 6 0.410622 0.0191162 0.155164
17492 7 0.42044 0.0326214 0.156406
14848 1 0.496648 0.0197134 0.175091
15247 9 0.43867 0.115576 0.152586
14928 3 0.441814 0.124316 0.158754
14862 7 0.476902 0.00896576 0.151744
14826 6 0.488242 0.0164909 0.15558
14940 7 0.482878 0.119075 0.158071
17491 7 0.422475 0.00660505 0.154959
14861 7 0.497166 0.0201686 0.149262
25284 3 0.000938538 0.147768 0.156911
1933 1 -0.000572474 0.146939 0.175036
2104 7 0.00181049 0.215213 0.148813
25290 7 0.113606 0.156709 0.152268
2033 7 0.0554213 0.138647 0.13618
25253 6 0.098374 0.151639 0.153595
2032 7 0.0440441 0.163504 0.134056
1995 6 0.0393684 0.147083 0.136825
25275 1 0.0947026 0.144569 0.173098
25278 8 0.0305483 0.147245 0.151887
22957 9 0.0864466 0.224309 0.155791
22732 3 0.0985098 0.211973 0.156487
25285 4 0.0420404 0.170135 0.159796
25359 5 0.0301715 0.176902 0.178372
25356 5 0.0697986 0.241006 0.17392
25354 4 0.0456838 0.208152 0.167542
25351 2 0.0473814 0.233342 0.169444
25286 5 0.0701502 0.175619 0.171922
25279 2 0.0466929 0.183191 0.169366
25259 1 0.0993852 0.207814 0.174949
25355 5 0.027598 0.239159 0.175821
25394 6 0.071051 0.186612 0.143089
25291 7 0.0886634 0.162067 0.149454
25432 7 0.0581167 0.182564 0.147836
25433 7 0.0786389 0.198425 0.146057
25353 3 0.0477214 0.243722 0.157211
2103 7 0.00583905 0.191342 0.152049
12353 7 0.492867 0.200823 0.241993
1962 7 0.136336 0.199126 0.132155
22741 7 0.216005 0.131375 0.145908
1963 7 0.146017 0.224431 0.13393
22740 7 0.218573 0.154191 0.150679
1927 6 0.132081 0.213662 0.136215
22726 8 0.126812 0.211175 0.151407
22730 5 0.129427 0.176028 0.175764
22700 6 0.20706 0.143252 0.149383
22636 1 0.200959 0.146229 0.169459
22729 4 0.14564 0.146884 0.163308
22733 4 0.137802 0.231523 0.16047
20188 7 0.185568 0.23308 0.150338
20189 7 0.206418 0.221263 0.150159
20148 6 0.191621 0.219498 0.152914
22728 5 0.137279 0.187774 0.158444
22725 2 0.146456 0.171837 0.166582
20178 5 0.22872 0.238162 0.173958
20183 5 0.232026 0.180932 0.173841
22723 1 0.194392 0.208662 0.173505
22731 5 0.169654 0.178649 0.170819
22734 5 0.167696 0.238935 0.173894
22807 5 0.128175 0.241243 0.179731
20110 3 0.239498 0.175652 0.154174
20173 2 0.247244 0.234585 0.166373
20177 4 0.251007 0.211111 0.163194
20105 2 0.249367 0.185106 0.164957
22727 2 0.14427 0.24515 0.170237
20354 9 0.241191 0.187425 0.148874
17555 4 0.343208 0.144399 0.163476
20102 1 0.295366 0.144339 0.17267
17554 3 0.346932 0.177802 0.15309
17801 9 0.352875 0.193005 0.152723
17558 3 0.339121 0.228863 0.157315
17552 2 0.346557 0.169726 0.164848
17556 5 0.328479 0.179498 0.171558
20111 5 0.272799 0.176865 0.168864
20084 1 0.301203 0.208837 0.17155
20179 5 0.269208 0.241163 0.170691
17631 5 0.32973 0.243115 0.175036
17802 9 0.347809 0.2326 0.150598
17553 2 0.346166 0.245743 0.165888
17557 5 0.370275 0.173423 0.169225
17559 5 0.370177 0.238561 0.168475
17563 7 0.416331 0.207681 0.14738
17564 7 0.39278 0.208379 0.144181
17565 7 0.402007 0.165375 0.148635
17566 7 0.381366 0.163141 0.155498
14938 7 0.459257 0.201314 0.136286
14937 7 0.446036 0.192277 0.145807
17525 6 0.394696 0.154236 0.153326
17459 1 0.400844 0.148358 0.173845
17526 6 0.40155 0.206954 0.15069
14899 6 0.445595 0.203549 0.139963
15248 9 0.446859 0.155186 0.157207
15002 3 0.450348 0.238164 0.153607
14932 3 0.447975 0.171448 0.156272
15000 2 0.45221 0.231304 0.165671
15003 4 0.453729 0.206747 0.165984
14927 2 0.4516 0.181655 0.167683
15005 5 0.475102 0.239538 0.169446
14933 5 0.47341 0.172815 0.171755
15004 5 0.431751 0.238561 0.172151
17550 1 0.397042 0.207943 0.171084
15008 5 0.431972 0.174041 0.174376
15249 9 0.451862 0.224184 0.148649
14924 1 0.496139 0.144215 0.174324
14898 6 0.497247 0.124938 0.155977
14939 7 0.501431 0.113821 0.149785
22648 6 0.111487 0.0631566 0.247594
22687 7 0.121795 0.0703142 0.2429
25471 9 0.0727988 0.013458 0.24651
25198 5 0.0959052 0.0822722 0.194377
25195 5 0.0934601 0.0213909 0.191353
25268 5 0.0525359 0.0835153 0.196517
25258 1 0.0232435 0.116349 0.195003
25207 1 0.0264874 0.054571 0.19643
25191 2 0.0752314 0.0903122 0.200833
25263 4 0.0787432 0.115032 0.201402
25197 4 0.0757231 0.0767659 0.211252
25192 5 0.0713995 0.0325715 0.209526
25196 3 0.0331293 0.0523268 0.215363
25190 8 0.0639308 0.0535105 0.21865
25510 9 0.022269 0.064447 0.217775
25517 7 0.0761918 0.0578935 0.239135
25240 6 0.0776788 0.0479518 0.232165
22685 7 0.0795796 0.104479 0.21999
25506 7 0.0780585 0.0299751 0.234527
22649 6 0.0806454 0.11574 0.22557
25194 5 0.0528851 0.0143293 0.194943
25189 2 0.0759994 0.0161525 0.199978
22684 7 0.0690947 0.114749 0.230746
25308 6 0.0197426 0.116249 0.214565
25472 9 0.0578767 0.0924533 0.244483
22686 7 0.103173 0.0545729 0.243068
22650 7 0.105661 0.0723302 0.212818
25272 7 0.0251799 0.116496 0.222041
25271 7 0.0115861 0.102455 0.215006
22683 6 0.120127 0.064573 0.213565
25381 7 0.00633145 0.245461 0.238819
25309 7 0.0257417 0.108939 0.240537
25270 6 0.0392953 0.1117 0.236773
25236 7 0.0175863 0.0267649 0.244898
22958 9 0.126593 0.122544 0.219662
22635 1 0.123072 0.0535195 0.194513
22575 6 0.11311 0.00572734 0.247177
25201 6 0.0110179 0.0414476 0.243463
22759 7 0.0980803 0.119138 0.23935
25227 3 0.0620983 0.0231159 0.24942
22760 7 0.090181 0.104452 0.248468
22717 6 0.100191 0.116891 0.247227
25205 7 0.0105046 0.0115467 0.217667
22651 7 0.126188 0.0685034 0.220739
22613 7 0.125545 0.0122908 0.243721
22614 7 0.102503 0.00113433 0.241306
20097 6 0.200437 0.123089 0.24989
20008 7 0.220838 0.00515129 0.241843
20062 7 0.146416 0.09003 0.228958
22655 1 0.128443 0.114387 0.194302
20023 6 0.145996 0.0769378 0.233813
20134 7 0.218634 0.0373709 0.245972
22918 9 0.161129 0.0211412 0.246784
20061 7 0.16199 0.0723168 0.233407
22643 5 0.193684 0.0865012 0.19059
22572 5 0.192019 0.020715 0.194112
20083 1 0.22292 0.113041 0.190391
20029 1 0.226573 0.0533489 0.193214
22642 5 0.152001 0.0875153 0.194181
20063 7 0.179274 0.0523402 0.222823
22637 2 0.174548 0.0800107 0.197903
22641 4 0.172842 0.0554233 0.200657
22565 2 0.174303 0.0300373 0.201207
22640 5 0.174526 0.0941254 0.207908
20060 6 0.222766 0.0570845 0.21336
20022 6 0.186738 0.0643175 0.226512
20064 7 0.183632 0.0752139 0.221273
22647 5 0.151855 0.0208091 0.197845
20096 6 0.209759 0.0506129 0.246408
22571 3 0.17609 0.0233286 0.213245
22638 8 0.167826 0.118991 0.215059
22644 3 0.137272 0.121693 0.212777
17471 6 0.239703 0.020969 0.2267
20135 7 0.204566 0.0543623 0.239152
22965 7 0.180878 0.101518 0.233164
22577 7 0.147948 0.0429184 0.234989
20025 7 0.209795 0.0654886 0.217542
22688 6 0.176119 0.11738 0.230585
22612 6 0.14897 0.0268066 0.233157
22576 7 0.156275 0.0269276 0.226108
20024 7 0.228161 0.0471438 0.218978
22931 9 0.188931 0.0142912 0.214688
22919 9 0.150841 0.0869665 0.245377
20100 7 0.226409 0.116815 0.238834
20101 7 0.234092 0.116409 0.227513
20130 6 0.239483 0.118751 0.234559
17510 7 0.243332 0.0246066 0.233927
22954 7 0.16337 0.123014 0.235913
22652 7 0.132228 0.00538717 0.222241
20132 7 0.185208 0.119678 0.248224
20016 5 0.252295 0.0235188 0.196646
20009 7 0.198688 0.00799076 0.246566
17507 6 0.322515 0.000877052 0.217251
17860 7 0.360587 0.00834887 0.226173
20056 3 0.265228 0.0831587 0.248603
20365 9 0.268128 0.0350478 0.24703
17813 9 0.372457 0.0981784 0.244881
17509 7 0.253577 0.0200176 0.223074
20051 3 0.256939 0.0244761 0.24791
20095 5 0.254022 0.0836299 0.193954
20020 5 0.294046 0.0852854 0.18947
20366 9 0.257703 0.0907737 0.242857
20017 5 0.292549 0.0224641 0.193983
17477 1 0.328183 0.116074 0.193571
17458 1 0.321241 0.0522755 0.194257
17464 5 0.350596 0.0873888 0.196974
20013 2 0.27715 0.0866176 0.198653
20379 9 0.279748 0.0799255 0.215234
20089 4 0.279458 0.112096 0.201841
20019 3 0.280727 0.0704872 0.208285
20378 9 0.280552 0.0377569 0.213402
17466 6 0.321556 0.0528721 0.214686
17493 7 0.307384 0.0594141 0.215905
17494 7 0.330933 0.0626109 0.218581
14960 7 0.352311 0.0932754 0.222903
14918 6 0.33816 0.0902385 0.225696
14959 7 0.340178 0.0881111 0.233677
17469 5 0.351212 0.0209221 0.199509
20014 3 0.277415 0.0226059 0.213055
20012 2 0.27376 0.0144538 0.201211
17503 6 0.299865 0.0516375 0.247048
17499 3 0.358467 0.0908848 0.245306
17548 7 0.296915 0.108008 0.220486
17578 6 0.286648 0.100128 0.225023
17456 7 0.311233 0.0577278 0.242048
17549 7 0.271471 0.106429 0.225032
17457 7 0.286485 0.0590213 0.245242
17473 7 0.328536 0.113092 0.21829
14846 7 0.367565 0.0486164 0.237925
17583 7 0.305758 0.10729 0.237196
17544 6 0.309357 0.112109 0.244758
17460 2 0.373615 0.0798415 0.200437
17463 4 0.372562 0.0553726 0.200395
14847 7 0.362808 0.0643609 0.228486
17582 7 0.324275 0.105488 0.245716
14878 6 0.371993 0.0525394 0.230892
17508 6 0.324634 0.125151 0.213813
17474 7 0.327716 0.0152031 0.22061
17475 7 0.306824 0.0018475 0.216637
17386 2 0.374021 0.0305555 0.201627
17825 9 0.37726 0.0409233 0.217796
17391 3 0.381208 0.0271431 0.213784
14875 4 0.452009 0.0739162 0.2491
17462 3 0.38149 0.0890682 0.211253
17826 9 0.386224 0.0768267 0.216464
15272 9 0.480999 0.0102038 0.21833
14840 5 0.492682 0.0780217 0.196547
17465 5 0.391187 0.0852505 0.191687
14906 1 0.423925 0.114543 0.19664
17392 5 0.391704 0.0216211 0.193562
14849 1 0.427398 0.0521054 0.195548
14917 5 0.45255 0.0839166 0.199966
14837 5 0.451308 0.0206127 0.199429
14911 4 0.477538 0.112952 0.204491
14834 2 0.475736 0.0880415 0.20387
14839 3 0.479575 0.0795284 0.215674
14955 6 0.418102 0.0565675 0.215246
15273 9 0.475767 0.0913277 0.22074
14922 7 0.411345 0.0421724 0.216891
14923 7 0.431633 0.0570591 0.219883
15308 7 0.463356 0.0578119 0.224957
14884 6 0.454163 0.0455347 0.228711
15297 7 0.460092 0.0306003 0.225945
15303 9 0.398232 0.0489259 0.239746
14868 8 0.4413 0.0493748 0.242548
14835 3 0.483145 0.0208091 0.213269
14874 3 0.411415 0.0506064 0.245532
14833 2 0.474657 0.0119991 0.20191
14914 6 0.413778 0.122327 0.216563
14838 5 0.491334 0.0203263 0.193573
14951 6 0.399285 0.120577 0.241396
14941 7 0.399823 0.112538 0.215666
12366 6 0.47504 0.110678 0.230924
12408 7 0.466989 0.110666 0.237434
14904 7 0.40283 0.117706 0.233712
14844 7 0.404597 0.00207803 0.216977
25345 7 0.0259593 0.247237 0.223943
25310 7 0.0452038 0.122617 0.24138
25348 7 0.00196921 0.182547 0.217092
25484 9 0.0874364 0.138918 0.216748
22757 7 0.092708 0.18242 0.240683
25267 5 0.0939762 0.205072 0.195596
25265 5 0.0903439 0.144849 0.19082
25347 7 0.0193478 0.174166 0.225687
25512 9 0.00312682 0.174345 0.238696
25303 3 0.0140349 0.176193 0.244911
25260 2 0.0759141 0.140171 0.200755
25264 5 0.0525231 0.14764 0.199218
25332 1 0.0241508 0.238318 0.197098
25276 1 0.0263397 0.177431 0.197931
25342 5 0.0535149 0.209676 0.201308
25337 4 0.078392 0.239443 0.202618
25261 2 0.0776775 0.214829 0.203028
25266 3 0.0843346 0.20728 0.214842
25262 3 0.0867608 0.15023 0.211284
25485 9 0.0946723 0.195834 0.21449
22720 7 0.106918 0.16971 0.217348
25377 6 0.0181 0.179223 0.218139
25507 7 0.063787 0.187721 0.226402
25518 7 0.0691673 0.160127 0.226782
25314 6 0.0654135 0.173135 0.231457
25297 8 0.0448823 0.175686 0.243635
22830 7 0.0719027 0.226345 0.227584
22791 6 0.0621347 0.235268 0.231572
22829 7 0.054822 0.224228 0.235904
22751 3 0.113904 0.23974 0.244341
22756 6 0.12316 0.176611 0.215413
22758 7 0.116933 0.180251 0.243798
22718 6 0.101403 0.18085 0.246879
22825 6 0.119625 0.239151 0.218195
25378 6 0.0172631 0.24325 0.217782
17468 5 0.39433 0.14259 0.194353
22795 7 0.106075 0.231373 0.217138
20131 6 0.227043 0.125099 0.210184
22706 1 0.124229 0.17605 0.194851
22796 7 0.128413 0.230518 0.223577
20208 7 0.212255 0.216245 0.245452
22719 7 0.131791 0.178073 0.222201
22724 1 0.129631 0.240417 0.198293
20099 7 0.213558 0.133344 0.2104
20098 7 0.238279 0.136595 0.208822
20167 7 0.211135 0.226852 0.215229
22646 5 0.194868 0.145684 0.189238
22713 5 0.198109 0.211686 0.19405
20103 1 0.228671 0.177853 0.192552
22716 5 0.154872 0.14824 0.193373
20154 1 0.225197 0.240116 0.193209
22722 7 0.147616 0.162567 0.239645
22645 4 0.179544 0.141002 0.206864
22712 5 0.154791 0.211968 0.197215
22639 2 0.178234 0.154539 0.196825
22708 2 0.178014 0.204343 0.200639
22711 4 0.17932 0.179047 0.199064
22710 3 0.18286 0.208982 0.212791
22932 9 0.184195 0.194377 0.216667
20204 6 0.222459 0.237504 0.213776
20092 3 0.231311 0.175717 0.211349
22721 7 0.152421 0.185657 0.239974
20406 9 0.218073 0.172031 0.216585
22745 8 0.145493 0.241078 0.24333
20166 6 0.189882 0.170813 0.225489
20206 7 0.176142 0.173093 0.229971
22755 6 0.147443 0.175749 0.234735
20205 7 0.185079 0.159502 0.220193
22762 6 0.164381 0.237415 0.231462
20169 7 0.205025 0.172384 0.238056
20203 6 0.211041 0.177874 0.245116
22955 7 0.168652 0.220639 0.228955
20170 7 0.225603 0.169911 0.244542
20367 9 0.251906 0.135274 0.242788
22966 7 0.165669 0.245818 0.224308
20207 7 0.197626 0.232996 0.240372
20165 6 0.207998 0.231925 0.246497
20133 7 0.201889 0.137981 0.248011
15031 7 0.408405 0.228994 0.239123
20123 3 0.256192 0.149388 0.247439
17580 7 0.319137 0.229536 0.241938
20164 5 0.253306 0.209358 0.194467
20090 5 0.250137 0.137813 0.193776
17571 3 0.351185 0.219594 0.246703
17815 9 0.353741 0.235544 0.247469
17472 7 0.338948 0.130515 0.211568
17581 7 0.297672 0.238781 0.240175
17617 7 0.258501 0.225691 0.22521
17651 6 0.265925 0.228407 0.231694
17618 7 0.260708 0.242974 0.232574
20368 9 0.266779 0.213787 0.243468
20091 5 0.289936 0.143579 0.189726
20094 5 0.293699 0.208092 0.191352
17531 1 0.322281 0.176613 0.192995
17551 1 0.326446 0.239498 0.19483
17538 5 0.352447 0.205907 0.192032
17543 5 0.352038 0.141624 0.19397
20085 2 0.273671 0.136158 0.198421
20086 8 0.262171 0.173633 0.215014
20087 2 0.275429 0.214825 0.199184
20159 4 0.277967 0.238124 0.203398
20088 5 0.271925 0.153357 0.206605
20093 4 0.272614 0.197195 0.208025
17547 7 0.309877 0.18395 0.217205
17540 3 0.329785 0.238785 0.213579
17579 6 0.319195 0.177322 0.212231
17546 7 0.319543 0.163043 0.215488
20136 6 0.277389 0.174614 0.228628
20413 7 0.279193 0.187227 0.23353
20402 7 0.272557 0.162078 0.234226
17534 8 0.359392 0.23482 0.215597
17814 9 0.365655 0.158881 0.242035
20127 3 0.267547 0.2043 0.249511
17536 5 0.370266 0.213852 0.207211
17854 9 0.318306 0.248823 0.217252
17504 3 0.364863 0.14794 0.247728
14996 7 0.362377 0.19039 0.23549
14997 7 0.366389 0.193026 0.223464
17861 7 0.372158 0.221944 0.234378
17545 6 0.309792 0.24106 0.244667
15026 6 0.367026 0.182402 0.229185
17827 9 0.369921 0.153426 0.216317
17461 2 0.372864 0.149308 0.199379
17467 3 0.371044 0.141809 0.210977
17533 2 0.374124 0.199669 0.197568
14942 7 0.407486 0.135692 0.215084
17850 7 0.384043 0.245519 0.231576
14956 6 0.414928 0.175292 0.214888
14957 7 0.414891 0.166541 0.238174
14991 5 0.454812 0.207804 0.196645
14910 3 0.477758 0.1477 0.215123
17584 6 0.38009 0.231132 0.227664
15030 7 0.42676 0.23006 0.248334
9777 7 0.457235 0.241095 0.226592
12329 7 0.433927 0.140223 0.22885
15275 9 0.472863 0.214505 0.217876
12407 7 0.473128 0.125643 0.229061
14958 7 0.393996 0.181494 0.236783
14920 7 0.425831 0.168952 0.220342
15274 9 0.491153 0.156031 0.216095
12328 7 0.453574 0.155933 0.225097
14905 7 0.386241 0.129814 0.24052
14992 6 0.413525 0.236807 0.245592
9739 6 0.470411 0.245966 0.229968
14908 2 0.476995 0.138127 0.20348
12291 6 0.440233 0.155746 0.229674
14985 4 0.480336 0.23888 0.201396
14919 6 0.405212 0.177061 0.241862
14952 3 0.464292 0.215961 0.246301
15262 9 0.463095 0.228769 0.241729
12352 7 0.484164 0.17816 0.242223
14921 7 0.401273 0.175099 0.219328
14947 3 0.470387 0.152102 0.248757
14909 2 0.477085 0.213789 0.200855
14916 5 0.496651 0.204237 0.19443
14912 5 0.45505 0.144668 0.198364
14979 1 0.424589 0.2374 0.1927
15027 6 0.420887 0.241724 0.212502
17539 5 0.393772 0.204956 0.190682
14913 5 0.496178 0.145289 0.196331
14925 1 0.429208 0.175159 0.1958
15261 9 0.460966 0.150601 0.241872
14995 7 0.421025 0.22613 0.216004
17537 4 0.373419 0.174909 0.199737
14915 3 0.474763 0.203495 0.21211
22960 9 0.104885 0.227116 0.241406
14994 7 0.405968 0.24637 0.212112
22679 3 0.15545 0.138356 0.24909
25178 3 0.023825 0.0505775 0.304708
25245 3 0.0181885 0.11646 0.304208
25251 5 0.0102219 0.0502789 0.284579
25246 4 0.0224693 0.0832431 0.291379
25243 2 0.0257109 0.108138 0.292723
25224 1 0.0796952 0.0854734 0.289975
25179 5 0.0501381 0.0514305 0.290995
25173 2 0.0269326 0.058101 0.292686
25170 1 0.0779967 0.0247375 0.29059
25232 5 0.0747566 0.0867019 0.269443
25230 5 0.0776963 0.0276956 0.269393
22671 1 0.107085 0.0575165 0.268513
25171 1 0.008463 0.0534722 0.263253
25229 5 0.0351427 0.0254006 0.264489
25294 1 0.00198929 0.115164 0.264228
25306 5 0.0344264 0.0807197 0.26428
25226 2 0.0563644 0.0917323 0.261346
25225 2 0.0594186 0.0185278 0.262011
25496 9 0.0181197 0.0365602 0.305223
25288 6 0.0807109 0.0794924 0.310128
22619 1 0.107513 0.118825 0.267511
25300 4 0.0537172 0.116823 0.260442
25248 5 0.0492732 0.11528 0.290676
22699 5 0.111099 0.112817 0.288698
22624 5 0.111666 0.0576627 0.289623
25247 5 0.0095373 0.1177 0.284482
25218 6 0.0880949 0.0244744 0.311114
25497 9 0.0149461 0.103046 0.308498
25183 7 0.0977207 0.0373205 0.311235
25257 7 0.0962774 0.0767989 0.313877
25174 3 0.0200946 -9.1381e-05 0.306564
25184 7 0.0998975 0.0129646 0.309312
22622 3 0.12354 0.0625378 0.307082
22944 9 0.133629 0.12323 0.312073
22943 9 0.127024 0.0772523 0.307487
22626 3 0.131302 0.111076 0.306776
22623 4 0.126732 0.0248632 0.296672
22681 5 0.137474 0.0252252 0.267207
22620 2 0.129635 0.0500215 0.297139
19999 4 0.222353 0.04536 0.302027
19993 2 0.228 0.0623146 0.293745
20068 2 0.230734 0.112739 0.295707
20071 4 0.228124 0.0875046 0.296302
22625 5 0.152337 0.0574665 0.292985
22627 5 0.153202 0.115104 0.290649
22618 1 0.178881 0.0877067 0.289645
20076 5 0.213921 0.059725 0.283841
22600 1 0.182433 0.0272153 0.290211
22609 5 0.177857 0.0288752 0.27226
22678 5 0.175938 0.0883898 0.269855
19990 1 0.211464 0.0570463 0.266777
22677 5 0.135309 0.0868186 0.265688
20129 5 0.236609 0.0857196 0.263811
20053 5 0.232539 0.0233036 0.263774
22602 2 0.160138 0.0310067 0.263483
22673 2 0.157949 0.0810348 0.261666
22676 4 0.161771 0.0557023 0.260916
19998 3 0.1853 0.0240488 0.309832
20119 1 0.207328 0.119162 0.269118
20072 5 0.213908 0.119861 0.287414
19992 8 0.216214 0.0244128 0.311792
22608 3 0.167026 0.0161982 0.253652
20070 3 0.224402 0.121816 0.306975
22621 2 0.130029 0.121042 0.295376
22633 7 0.168098 0.079856 0.305162
22545 2 0.128602 -0.000374465 0.294181
19994 5 0.223429 0.00323639 0.303132
22675 3 0.160492 0.0948802 0.25099
22920 9 0.153915 0.122963 0.250676
20000 5 0.251808 0.0573712 0.29045
17448 5 0.35065 0.116434 0.287491
17440 8 0.317692 0.0848752 0.309935
17446 3 0.286233 0.0808192 0.307762
17442 5 0.325502 0.0633008 0.301441
17447 4 0.321108 0.108141 0.30057
17443 4 0.331316 0.0261175 0.29373
17439 2 0.330803 0.0507381 0.291401
20048 1 0.284095 0.0874748 0.288414
19989 1 0.277441 0.0252728 0.287049
17445 5 0.35204 0.058653 0.286453
17444 5 0.310808 0.0550639 0.283827
20057 5 0.276917 0.0866854 0.268247
17495 1 0.306004 0.0530898 0.266876
17506 5 0.332154 0.0275252 0.264352
20054 5 0.273521 0.0230309 0.266641
17438 1 0.310889 0.116952 0.265311
17501 5 0.335781 0.0869617 0.26272
17421 2 0.355456 0.0293458 0.259987
20050 2 0.258441 0.0940122 0.259731
20049 2 0.255192 0.0150712 0.25929
17497 2 0.355903 0.0793239 0.25676
20040 6 0.278653 0.0263176 0.306734
17500 4 0.359206 0.0533513 0.255945
20073 5 0.25361 0.12037 0.291946
20124 4 0.259174 0.1186 0.260956
20004 7 0.280609 0.0416584 0.30897
17502 5 0.375882 0.0864256 0.263929
17427 4 0.353336 0.0125346 0.251413
17428 5 0.373251 0.0236085 0.268377
17524 5 0.311631 0.123662 0.282407
17369 2 0.330127 0.000711728 0.29263
17838 9 0.327038 0.0057609 0.309399
17437 1 0.375618 0.0875858 0.28392
14822 3 0.421714 0.0532019 0.304595
14891 4 0.43064 0.0882775 0.294491
14817 2 0.428438 0.0625144 0.293496
14887 2 0.429056 0.111656 0.289807
14823 5 0.450433 0.0532945 0.28911
17418 1 0.381925 0.0238107 0.288294
14893 5 0.45311 0.118576 0.286934
14897 5 0.410955 0.0570681 0.285016
14892 5 0.41217 0.114494 0.281292
14866 1 0.481023 0.0855603 0.285156
14814 1 0.472709 0.0233909 0.286798
14873 5 0.473169 0.021818 0.266548
14876 5 0.472132 0.0826808 0.265785
14815 1 0.408806 0.0518192 0.26507
14943 1 0.403006 0.119353 0.262058
14954 5 0.431034 0.0837965 0.263129
17412 6 0.391933 0.0187657 0.308841
14869 2 0.453495 0.089875 0.258258
14872 5 0.43143 0.0136806 0.265933
14867 2 0.453548 0.0119808 0.259938
14948 4 0.458889 0.114048 0.254934
14860 6 0.488305 0.0897936 0.303618
17379 7 0.405286 0.0282658 0.309284
17380 7 0.40007 0.00442478 0.307739
15286 9 0.426895 0.0627433 0.310311
11788 7 0.467659 0.169243 0.488249
14827 7 0.495511 0.0756895 0.305312
14902 7 0.450889 0.0856839 0.312442
25296 2 0.0547322 0.141667 0.262192
25241 1 0.0749736 0.147326 0.290807
25249 3 0.0187513 0.181604 0.303895
25360 6 0.0859227 0.211598 0.308023
25320 4 0.0281876 0.213656 0.291803
25317 2 0.0286472 0.2382 0.293326
25295 1 0.0807629 0.210653 0.286958
25250 5 0.0513707 0.178424 0.292279
25244 2 0.0280443 0.188426 0.292907
25325 5 0.0121424 0.181734 0.283941
25302 5 0.0733118 0.150034 0.270071
25305 5 0.0722465 0.2125 0.268444
22742 1 0.100587 0.179026 0.267337
25301 5 0.0317595 0.148434 0.265784
25242 1 0.00607013 0.180398 0.264768
25376 5 0.0293214 0.219427 0.264951
25298 2 0.0534537 0.216976 0.260773
25289 6 0.086498 0.148418 0.310405
25366 1 0.00290724 0.243574 0.265031
25498 9 0.0198933 0.195061 0.308825
25371 4 0.0585452 0.240912 0.256845
22690 1 0.107202 0.242972 0.263685
22695 5 0.107103 0.178236 0.287072
22773 5 0.111709 0.242916 0.282449
25322 5 0.0514782 0.246043 0.288769
25321 5 0.00944025 0.247426 0.287341
25299 5 0.0543188 0.152868 0.251429
25499 9 0.0258695 0.233722 0.310086
22697 3 0.117564 0.241968 0.301691
25331 7 0.095799 0.199521 0.309996
25255 7 0.100699 0.157263 0.311622
25304 4 0.0519936 0.198681 0.25182
25330 7 0.0945559 0.224721 0.308655
22693 3 0.118584 0.177185 0.306537
25319 3 0.0285413 0.246071 0.305214
14232 5 0.482921 0.000638495 0.430744
22694 4 0.12712 0.146211 0.294594
22945 9 0.127848 0.173157 0.312277
22691 2 0.127003 0.170661 0.294933
22748 4 0.159053 0.177107 0.257688
22674 2 0.15545 0.152092 0.259719
22754 5 0.132589 0.14894 0.264293
20202 5 0.233605 0.209102 0.262938
22672 1 0.179939 0.151222 0.286922
20142 4 0.226345 0.211053 0.291672
20147 5 0.208582 0.178597 0.287299
22696 5 0.148689 0.178313 0.29099
20074 3 0.224053 0.184076 0.306089
20069 2 0.228344 0.186171 0.29364
22689 1 0.17429 0.21152 0.288476
20392 9 0.232036 0.195925 0.309773
20139 2 0.22647 0.236537 0.293258
20067 1 0.209418 0.1795 0.265355
22680 5 0.173137 0.145067 0.268077
22750 5 0.171891 0.208232 0.26935
22749 5 0.130934 0.204992 0.264786
20125 5 0.236005 0.152362 0.264311
22744 2 0.154236 0.202411 0.260857
22737 6 0.183008 0.206869 0.308162
22736 6 0.187496 0.147686 0.306949
22698 5 0.151292 0.239692 0.289643
20190 1 0.201121 0.241812 0.26593
20143 5 0.209106 0.24536 0.285775
20393 9 0.21172 0.229136 0.307959
20141 3 0.219615 0.242016 0.305094
22704 7 0.196185 0.134174 0.307428
22705 7 0.198938 0.15929 0.308765
22747 5 0.152264 0.218278 0.251699
22702 7 0.17747 0.211083 0.315555
22963 7 0.138983 0.209719 0.311877
20144 5 0.250627 0.243263 0.291602
22703 7 0.196713 0.19882 0.308673
17441 2 0.327565 0.124578 0.291559
17572 4 0.36036 0.183946 0.256361
20126 5 0.277746 0.152931 0.266037
20075 5 0.249814 0.177347 0.289055
20066 1 0.276439 0.149742 0.288243
17516 2 0.328549 0.174559 0.294436
17518 3 0.329357 0.184888 0.305787
20114 6 0.284969 0.21209 0.305735
17519 4 0.327601 0.148443 0.295649
17521 5 0.351282 0.180024 0.289284
20120 1 0.280476 0.211825 0.28631
17520 5 0.309739 0.183427 0.286818
17595 5 0.31223 0.247199 0.283525
17567 1 0.303522 0.180741 0.265549
20128 5 0.27463 0.213928 0.2679
17577 5 0.332155 0.15523 0.26204
17573 5 0.331631 0.206081 0.263122
17498 2 0.356441 0.158443 0.258291
20121 2 0.257467 0.143039 0.259476
17569 2 0.353875 0.207981 0.257932
20122 2 0.256846 0.217294 0.259421
20196 4 0.256253 0.243039 0.258193
20113 6 0.269839 0.151386 0.30882
17523 5 0.351525 0.24167 0.288491
17515 1 0.30825 0.24437 0.265037
17522 3 0.323101 0.235985 0.30287
20081 7 0.254899 0.147361 0.30679
17839 9 0.316 0.192517 0.307121
17529 7 0.361077 0.200465 0.306995
17840 9 0.334369 0.224166 0.303757
11637 7 0.50065 0.0294835 0.491069
20082 7 0.269621 0.166935 0.309378
20079 7 0.29822 0.221597 0.307313
20080 7 0.274064 0.216397 0.311322
17561 6 0.374851 0.206931 0.307084
17505 5 0.372798 0.153363 0.266766
14890 5 0.423744 0.127084 0.29909
17574 5 0.370571 0.216502 0.266452
17514 1 0.376424 0.21115 0.286885
15020 4 0.457822 0.243163 0.260435
14945 2 0.45832 0.13971 0.257925
14886 1 0.409834 0.179716 0.262108
14894 3 0.38636 0.147799 0.304922
14972 5 0.41354 0.183369 0.279195
14896 5 0.45437 0.184227 0.285886
14888 8 0.416911 0.150846 0.306494
12342 3 0.485919 0.210345 0.30578
14895 4 0.421556 0.17112 0.297139
14964 2 0.429378 0.236512 0.293338
14967 4 0.427844 0.21084 0.292829
14889 2 0.429395 0.186734 0.288742
17496 1 0.381387 0.149305 0.285819
14944 1 0.482012 0.209559 0.286092
14885 1 0.47996 0.14676 0.285844
14953 5 0.473756 0.208011 0.265831
14936 6 0.482935 0.14525 0.30584
14950 5 0.472828 0.144002 0.267792
15025 5 0.433111 0.212244 0.260509
14949 5 0.433813 0.1481 0.259562
14946 2 0.456951 0.218448 0.258157
15015 1 0.4032 0.242981 0.266074
14969 5 0.453706 0.241762 0.290889
14968 5 0.410783 0.243539 0.285902
14966 3 0.427005 0.243282 0.305787
14901 7 0.492208 0.133701 0.309524
14900 7 0.469649 0.145794 0.310269
12753 9 0.474044 0.215789 0.311013
24819 9 0.02126 0.0043669 0.34281
25256 7 0.0690363 0.0746694 0.315154
1825 7 0.00363009 0.0308274 0.337074
24544 6 0.0897933 0.0298244 0.333696
24654 7 0.0980496 0.0957966 0.331621
24655 7 0.0798821 0.0770768 0.332257
24614 6 0.0842228 0.0909676 0.335186
24820 9 0.03493 0.0568989 0.333877
24550 1 0.0864025 0.0850671 0.355227
24571 2 0.0342506 0.0611747 0.350401
24576 3 0.0281137 0.0490902 0.340288
24577 5 0.0570457 0.0530845 0.354523
24639 2 0.0339295 0.11128 0.352532
24643 4 0.0339005 0.0865759 0.348625
24644 5 0.0168189 0.115095 0.361072
24645 5 0.0569894 0.119733 0.355535
24649 5 0.018821 0.0550529 0.360402
24568 1 0.083882 0.0238075 0.354005
22022 5 0.116594 0.0544129 0.358492
22097 5 0.117629 0.115479 0.355193
24582 7 0.0851388 0.0272481 0.325989
24581 7 0.101072 0.0411315 0.333726
25186 7 0.0401808 0.0597115 0.316835
25217 6 0.0503028 0.061002 0.322838
25185 7 0.0581058 0.046769 0.322261
22266 9 0.116627 0.00362065 0.338809
22020 3 0.127058 0.0588484 0.338947
24557 5 0.0801943 0.0250296 0.375009
22017 1 0.117724 0.115945 0.37504
22267 9 0.131551 0.073961 0.338759
20391 9 0.232201 0.113622 0.312484
20409 9 0.177099 0.0112113 0.31361
22024 3 0.128137 0.107525 0.336004
22665 6 0.175934 0.0936609 0.30718
22634 7 0.162738 0.103433 0.307282
22021 4 0.135352 0.0231157 0.351228
20065 6 0.239323 0.0294557 0.322111
22631 7 0.183192 0.0903513 0.326201
22632 7 0.202729 0.0956539 0.333597
19714 9 0.215564 0.0603828 0.336163