ITEM: TIMESTEP
352000
ITEM: NUMBER OF ATOMS
25520
ITEM: BOX BOUNDS pp pp pp
-3.8612082236603368e-01 6.0084664412366529e+01
-1.9417342215046933e+00 5.9112019495505400e+01
-1.2638578205390109e+01 1.1191431061139579e+02
ITEM: ATOMS id type xs ys zs
25182 6 0.0987672 0.0190387 0.152664
25252 6 0.111181 0.0826687 0.151159
25214 3 0.0443644 0.038636 0.158333
25287 5 0.0329318 0.0489974 0.17756
25283 5 0.0738021 0.109162 0.169979
25282 5 0.0319457 0.110756 0.17626
25281 4 0.0444037 0.0797042 0.165133
25277 2 0.0493169 0.105126 0.167261
25215 5 0.0721918 0.0498459 0.170813
25209 2 0.0480393 0.0557272 0.167996
25188 1 0.103739 0.0829305 0.171586
25458 9 0.0582287 0.0323677 0.156377
25206 1 0.0985045 0.0207444 0.173152
2433 1 0.00342784 0.019356 0.176332
25293 7 0.120858 0.0952522 0.149688
25280 5 0.041412 0.12095 0.158471
14848 1 0.499579 0.0160577 0.174356
25220 7 0.110671 0.00942615 0.149376
25219 7 0.0877061 0.0182229 0.14725
25292 7 0.121268 0.0693475 0.150406
22735 5 0.133304 0.114621 0.171086
22660 5 0.134337 0.056083 0.173601
22905 9 0.137458 0.0315837 0.152332
22662 3 0.143961 0.114892 0.151666
22658 3 0.144116 0.0463285 0.15446
22656 2 0.151038 0.0451518 0.166609
20112 5 0.232793 0.0510552 0.172197
22663 5 0.173635 0.113124 0.164779
22654 1 0.198121 0.0807302 0.167303
22661 5 0.174594 0.0521296 0.167859
22669 7 0.228918 0.0274243 0.1518
22659 4 0.150727 0.0216102 0.170179
22563 1 0.204647 0.0167935 0.171753
22629 6 0.218381 0.0152971 0.152606
22630 6 0.18872 0.0740892 0.147746
22667 7 0.183862 0.072201 0.140291
22668 7 0.177905 0.0653844 0.151789
20108 5 0.229235 0.116093 0.168514
22657 2 0.151166 0.122034 0.163003
20353 9 0.250092 0.0997739 0.145841
20106 3 0.247883 0.112934 0.150382
22670 7 0.226584 0.0012619 0.151465
20036 3 0.252753 0.0476659 0.15473
22906 9 0.151568 0.121977 0.146145
20107 4 0.251234 0.0838905 0.16576
20352 9 0.265841 0.0387145 0.153661
20042 7 0.301421 0.00892503 0.146595
20104 2 0.250368 0.108203 0.162463
20031 2 0.254015 0.0585599 0.165982
20118 7 0.313873 0.0945902 0.150864
20117 7 0.316621 0.0706532 0.150573
20077 6 0.305097 0.0821069 0.15206
17480 3 0.339882 0.0471337 0.155464
17799 9 0.347474 0.0357849 0.150683
17478 2 0.348432 0.043576 0.167103
20109 5 0.271965 0.117523 0.166955
17482 5 0.332882 0.0517729 0.176085
20037 5 0.2751 0.0494233 0.171625
20011 1 0.302018 0.0837505 0.172274
20028 1 0.298354 0.0182143 0.174284
17481 4 0.350545 0.0191644 0.16955
20003 6 0.304297 0.0187861 0.153393
17560 5 0.331189 0.109277 0.170521
17484 3 0.342192 0.113687 0.15126
20041 7 0.316353 0.0287448 0.151204
17479 2 0.348395 0.119988 0.163412
17800 9 0.354114 0.118438 0.1469
17485 5 0.372261 0.113495 0.166634
17483 5 0.372668 0.0511666 0.169087
17490 7 0.418933 0.0696409 0.149249
17489 7 0.427226 0.0915874 0.15223
17451 6 0.413193 0.0847199 0.150389
14856 3 0.445322 0.0404708 0.156436
15246 9 0.457936 0.0336407 0.153608
14929 4 0.452511 0.0793481 0.163308
14926 2 0.453392 0.10394 0.165484
14851 2 0.451304 0.0544461 0.166461
14931 5 0.476139 0.108138 0.170956
14857 5 0.475549 0.0469695 0.170646
17476 1 0.39795 0.0817202 0.169546
14934 5 0.433422 0.0510546 0.175228
14930 5 0.432636 0.109047 0.172132
17384 1 0.40181 0.0204004 0.174814
17450 6 0.405644 0.0192941 0.154798
17492 7 0.415772 0.0318969 0.153749
17491 7 0.404605 0.011729 0.147659
14928 3 0.451788 0.116327 0.154432
25304 4 0.0554475 0.198396 0.249699
17861 7 0.369134 0.247744 0.234257
14826 6 0.497434 0.00844417 0.154404
15245 9 0.436948 0.000145914 0.157427
17566 7 0.415391 0.122488 0.149098
14862 7 0.482127 0.00146478 0.154548
20051 3 0.267452 0.0247921 0.247228
25353 3 0.0458293 0.241102 0.156385
2033 7 0.0423826 0.132397 0.131742
25253 6 0.102191 0.151556 0.153329
2032 7 0.0469633 0.15848 0.133252
1995 6 0.0351804 0.147135 0.135087
25275 1 0.0977574 0.144034 0.173339
25278 8 0.0296789 0.142577 0.150774
22957 9 0.0917384 0.204927 0.147397
22732 3 0.101757 0.208242 0.154123
25285 4 0.0404676 0.163971 0.158831
25359 5 0.0334004 0.17485 0.177369
25356 5 0.0709019 0.237426 0.172781
25354 4 0.0477747 0.204136 0.165337
25351 2 0.049578 0.229428 0.167656
25286 5 0.0751977 0.175815 0.171128
25279 2 0.0498728 0.178354 0.168114
25259 1 0.103478 0.207112 0.173124
25355 5 0.0309458 0.236823 0.175966
25433 7 0.0543757 0.188991 0.146078
25394 6 0.0602433 0.195222 0.139756
25432 7 0.0602185 0.210736 0.140784
1933 1 0.00229512 0.142594 0.174024
25291 7 0.106593 0.165328 0.150268
25290 7 0.116527 0.143862 0.152983
2104 7 0.00989901 0.213833 0.150983
25284 3 0.00160596 0.138773 0.155619
1963 7 0.147336 0.237458 0.135961
1962 7 0.159543 0.213475 0.134654
22741 7 0.220113 0.13479 0.148115
22740 7 0.218235 0.160476 0.150955
1927 6 0.144482 0.219458 0.136807
22726 8 0.1323 0.212394 0.150927
22730 5 0.13119 0.172625 0.175178
22700 6 0.210563 0.14769 0.149851
22636 1 0.201301 0.14477 0.169825
22729 4 0.148842 0.1479 0.162385
22733 4 0.139731 0.233466 0.160435
20188 7 0.192166 0.23947 0.152217
20189 7 0.216454 0.228982 0.153821
20148 6 0.200473 0.22516 0.153094
22728 5 0.142677 0.188975 0.158126
22725 2 0.150117 0.172026 0.166147
20178 5 0.232634 0.239186 0.175821
20183 5 0.229639 0.175687 0.171572
22723 1 0.194635 0.212578 0.172237
22731 5 0.17085 0.181207 0.171119
22734 5 0.170954 0.239879 0.172999
22807 5 0.131018 0.242217 0.17891
20110 3 0.242318 0.179323 0.152116
22727 2 0.1467 0.246476 0.16978
20354 9 0.237337 0.193499 0.148846
20177 4 0.24814 0.209236 0.164378
20105 2 0.248252 0.18387 0.164123
20173 2 0.247678 0.233892 0.166306
17555 4 0.346351 0.145145 0.164639
20102 1 0.29699 0.144759 0.1684
17554 3 0.347335 0.1827 0.15394
17801 9 0.341422 0.197565 0.155179
17558 3 0.341451 0.227216 0.155204
17552 2 0.348809 0.169883 0.164785
17556 5 0.33012 0.178503 0.172298
20111 5 0.271777 0.177051 0.16691
20084 1 0.300957 0.20706 0.171331
20179 5 0.272027 0.238938 0.169105
17631 5 0.333005 0.239301 0.173347
17802 9 0.343462 0.234619 0.148176
17553 2 0.349081 0.243518 0.164008
17559 5 0.372195 0.236808 0.166777
17557 5 0.371514 0.174749 0.168828
15247 9 0.466152 0.117382 0.150723
17564 7 0.385954 0.208277 0.142549
17563 7 0.375658 0.192269 0.150588
14938 7 0.444934 0.193699 0.143737
14937 7 0.42519 0.20111 0.138355
17565 7 0.417469 0.145996 0.146717
17525 6 0.406123 0.135946 0.150062
17459 1 0.402278 0.141816 0.171006
17526 6 0.390362 0.197698 0.147939
14899 6 0.440232 0.204159 0.138391
15248 9 0.448038 0.146051 0.154907
15002 3 0.451281 0.235568 0.151595
14932 3 0.448573 0.162174 0.154359
15000 2 0.451783 0.227046 0.16309
15003 4 0.449436 0.2021 0.161888
14927 2 0.451447 0.177634 0.163984
15005 5 0.475379 0.235929 0.166722
14933 5 0.47379 0.171855 0.168795
15004 5 0.433479 0.235083 0.170287
17550 1 0.397461 0.206263 0.16814
15008 5 0.432427 0.173018 0.171988
15249 9 0.449835 0.223414 0.146331
20176 5 0.238711 0.247879 0.157838
17584 6 0.374912 0.236237 0.228562
12407 7 0.475141 0.132411 0.22162
25471 9 0.0688381 0.00996098 0.243632
25198 5 0.100051 0.0831477 0.19326
25195 5 0.0956003 0.0222147 0.192747
25268 5 0.0580198 0.0787375 0.196924
25258 1 0.0255714 0.116048 0.196313
25207 1 0.0314825 0.0521765 0.198148
25191 2 0.080124 0.0883092 0.200687
25263 4 0.0775159 0.114051 0.200351
25197 4 0.0833008 0.0787234 0.212042
25192 5 0.0802173 0.0323023 0.210188
25196 3 0.0413926 0.0540801 0.216947
25190 8 0.0719211 0.054328 0.218492
25510 9 0.0309142 0.0563648 0.223685
25517 7 0.0857716 0.0673574 0.236846
25240 6 0.0876997 0.0520214 0.232288
22685 7 0.0908792 0.099812 0.219475
25506 7 0.0822545 0.0404757 0.238166
22649 6 0.0924042 0.111381 0.225778
25194 5 0.0558401 0.0161686 0.197684
25189 2 0.0802101 0.0150405 0.201791
25201 6 0.0112441 0.0615629 0.244903
22684 7 0.0780908 0.110596 0.229771
25270 6 0.0529807 0.113758 0.234981
22760 7 0.104474 0.115689 0.238039
25308 6 0.0199452 0.126295 0.215448
22717 6 0.108584 0.11194 0.245731
25204 7 0.0359815 0.0188539 0.217886
25310 7 0.0536795 0.100327 0.239117
25205 7 0.0119945 0.0113887 0.219099
15030 7 0.414232 0.23948 0.237621
25271 7 0.030235 0.121304 0.220957
25234 6 0.0266214 0.00626425 0.216941
20061 7 0.12007 0.0643826 0.232303
22651 7 0.115523 0.03873 0.217154
25381 7 0.00766373 0.250469 0.237703
25236 7 0.0191001 0.07471 0.242336
25227 3 0.0662417 0.0223834 0.248255
25472 9 0.0526234 0.0661646 0.248648
25272 7 0.0085265 0.132181 0.220077
25231 3 0.0634923 0.0780574 0.249688
22958 9 0.124886 0.119732 0.217337
22613 7 0.112791 0.00952803 0.239825
22575 6 0.119633 0.00819747 0.246618
22614 7 0.133441 0.0149334 0.245547
22759 7 0.117658 0.0987608 0.245706
22683 6 0.129897 0.0456439 0.214977
22653 7 0.13832 0.00537585 0.220511
22650 7 0.138986 0.0447177 0.221904
22643 5 0.198397 0.0863359 0.189069
17509 7 0.243212 0.00358264 0.232575
20062 7 0.140229 0.0570799 0.237762
22572 5 0.196733 0.0191328 0.190785
22686 7 0.162092 0.0192032 0.232173
22635 1 0.125425 0.0540131 0.194447
20083 1 0.2246 0.114132 0.189751
20134 7 0.216759 0.0667916 0.242233
22687 7 0.17032 0.0407596 0.230012
22648 6 0.156436 0.0330104 0.231369
20023 6 0.131928 0.0713874 0.236304
22919 9 0.152934 0.0843425 0.243547
22931 9 0.184644 0.0374261 0.214618
22655 1 0.13328 0.114814 0.19189
20029 1 0.229973 0.0543307 0.191771
22642 5 0.157622 0.085045 0.190686
20063 7 0.206195 0.0547174 0.221017
22637 2 0.178643 0.0782358 0.195961
22641 4 0.180074 0.054056 0.197858
22565 2 0.178304 0.0284415 0.198435
22640 5 0.176461 0.0922191 0.205915
20060 6 0.238808 0.051209 0.212005
20022 6 0.190326 0.0597179 0.221757
20064 7 0.187682 0.071567 0.216537
22647 5 0.155487 0.0199687 0.196907
20096 6 0.211795 0.0533902 0.245898
22571 3 0.184206 0.022797 0.210259
22638 8 0.16616 0.1135 0.214245
22918 9 0.16429 0.022737 0.24649
22965 7 0.177998 0.097539 0.232586
20098 7 0.233019 0.108219 0.2156
20131 6 0.225128 0.11508 0.209804
22644 3 0.135943 0.116409 0.210804
22688 6 0.179921 0.114096 0.228446
17471 6 0.234452 0.0158144 0.232923
20097 6 0.217087 0.107714 0.244607
20132 7 0.207473 0.111899 0.238656
20130 6 0.257945 0.108264 0.227198
20024 7 0.246147 0.036889 0.208718
20135 7 0.222561 0.0434266 0.243654
22675 3 0.165822 0.0897249 0.248072
20133 7 0.23094 0.106526 0.240843
20025 7 0.250686 0.0617809 0.211699
20045 7 0.204418 0.00174117 0.214691
22954 7 0.172482 0.125704 0.233956
17618 7 0.294165 0.235862 0.233632
20056 3 0.264853 0.081528 0.245927
20366 9 0.278156 0.0740194 0.245112
17510 7 0.232247 0.0185839 0.22559
20101 7 0.259988 0.0978686 0.233022
20100 7 0.269657 0.118911 0.228925
20365 9 0.253304 0.0259579 0.243494
14992 6 0.409092 0.234618 0.245104
20020 5 0.297108 0.0811826 0.193815
20017 5 0.296945 0.0240073 0.194806
20016 5 0.256429 0.0251956 0.197603
17477 1 0.33055 0.116313 0.19224
17458 1 0.325709 0.0539824 0.19508
20095 5 0.254514 0.0867769 0.195487
17464 5 0.356212 0.0867389 0.193644
20013 2 0.277298 0.0903756 0.200395
20379 9 0.268741 0.0937521 0.216884
20089 4 0.281198 0.115446 0.200261
20019 3 0.27574 0.0817278 0.212064
20378 9 0.29413 0.0285446 0.216085
17466 6 0.317794 0.0560278 0.214139
17493 7 0.304425 0.0654705 0.214495
17494 7 0.327279 0.0614329 0.220255
17473 7 0.343063 0.108566 0.21608
14960 7 0.359345 0.0865825 0.221096
17548 7 0.291079 0.113024 0.221746
14918 6 0.344813 0.0871005 0.2245
14959 7 0.349092 0.0890103 0.232016
17469 5 0.354533 0.019245 0.199659
17456 7 0.296144 0.0430082 0.24076
17457 7 0.312946 0.0590186 0.237647
20014 3 0.28005 0.0206498 0.214307
20012 2 0.278237 0.0166568 0.202003
17503 6 0.307562 0.0517043 0.243838
17499 3 0.367691 0.0841699 0.244325
17508 6 0.33527 0.123239 0.213024
17578 6 0.295962 0.1281 0.222699
17583 7 0.306267 0.117727 0.236569
17463 4 0.378268 0.0517221 0.197864
17460 2 0.377462 0.0768017 0.197419
14847 7 0.358859 0.0347569 0.240226
14878 6 0.359353 0.0402046 0.232929
17544 6 0.308369 0.113452 0.244005
17825 9 0.36868 0.0293535 0.218385
14846 7 0.361767 0.0550531 0.233829
17472 7 0.32615 0.12929 0.219197
17511 7 0.282324 0.00728907 0.227649
14875 4 0.458407 0.0710813 0.247622
17386 2 0.377958 0.027856 0.201743
17813 9 0.378233 0.0962534 0.244571
14838 5 0.494855 0.0202258 0.193675
17465 5 0.396781 0.08329 0.190898
15272 9 0.480258 0.0085566 0.218213
17462 3 0.378822 0.0844685 0.20972
17391 3 0.38119 0.0265963 0.213787
14906 1 0.426993 0.112386 0.192827
17392 5 0.395285 0.0163271 0.195162
17826 9 0.389183 0.0745948 0.213526
14849 1 0.430249 0.0506924 0.194897
14917 5 0.455207 0.0797063 0.198367
14837 5 0.453495 0.021449 0.198372
14911 4 0.478525 0.114224 0.199442
14834 2 0.478107 0.089474 0.201864
14839 3 0.480396 0.0857147 0.21435
14955 6 0.419996 0.0555145 0.214658
15273 9 0.476109 0.0992737 0.21805
14922 7 0.425893 0.0575087 0.221776
14923 7 0.410237 0.0432422 0.215036
15308 7 0.462238 0.064143 0.222469
14884 6 0.455127 0.0499856 0.226267
15297 7 0.461784 0.0374646 0.221403
15303 9 0.405677 0.0431908 0.240033
14868 8 0.448451 0.047493 0.240885
14835 3 0.482742 0.0205394 0.212795
14874 3 0.418877 0.0453071 0.245644
14833 2 0.476639 0.0119553 0.201621
14951 6 0.408293 0.11425 0.243582
14914 6 0.423854 0.122784 0.213273
14840 5 0.496685 0.0789552 0.195784
12366 6 0.479479 0.122942 0.227288
14904 7 0.411899 0.110468 0.235932
14905 7 0.394594 0.124096 0.242719
14942 7 0.430814 0.131408 0.218942
14870 5 0.458067 0.0248307 0.248396
12408 7 0.472207 0.128071 0.233276
25343 6 0.00421744 0.238917 0.243086
25309 7 0.056518 0.125241 0.239636
25484 9 0.0891786 0.132476 0.216694
25267 5 0.0965314 0.207744 0.193377
25265 5 0.097765 0.144909 0.192145
25348 7 0.0329376 0.187396 0.222137
25347 7 0.00793778 0.190501 0.218318
25512 9 0.00574907 0.180048 0.237669
25303 3 0.0169234 0.176405 0.243843
25260 2 0.0785855 0.139209 0.200593
25264 5 0.0568706 0.147646 0.197548
25332 1 0.025615 0.236208 0.196404
25276 1 0.0295582 0.176792 0.196759
25342 5 0.0560276 0.20349 0.19885
25337 4 0.0765305 0.238426 0.202475
25261 2 0.078491 0.212776 0.201747
25266 3 0.0867006 0.204677 0.213305
25262 3 0.0862431 0.146449 0.21232
25485 9 0.0944641 0.190902 0.211961
22720 7 0.110984 0.16253 0.216012
25377 6 0.021192 0.182436 0.216636
25507 7 0.0722233 0.191702 0.225119
25518 7 0.0690665 0.163858 0.224021
25314 6 0.0677837 0.177312 0.229579
25297 8 0.0478314 0.175409 0.241467
22718 6 0.108965 0.178837 0.246522
22830 7 0.0736443 0.225097 0.226971
22791 6 0.0641902 0.234628 0.231001
22829 7 0.067428 0.230481 0.238301
25378 6 0.0257691 0.240746 0.215255
25345 7 0.0373259 0.242079 0.220676
22757 7 0.0978032 0.179311 0.240441
22751 3 0.123999 0.233053 0.243903
22758 7 0.122021 0.177271 0.242816
22960 9 0.116121 0.217878 0.243203
22706 1 0.12524 0.175008 0.194228
22756 6 0.122982 0.171858 0.21394
22795 7 0.128922 0.235514 0.223884
20208 7 0.203659 0.239892 0.238118
20099 7 0.211876 0.120779 0.213432
22646 5 0.195152 0.147779 0.18929
22713 5 0.193487 0.210088 0.191718
20103 1 0.227989 0.178089 0.191902
22719 7 0.134119 0.172391 0.220007
22716 5 0.156975 0.142484 0.192928
20154 1 0.226093 0.241201 0.194799
22724 1 0.130907 0.23898 0.196877
22722 7 0.157513 0.187103 0.239648
22645 4 0.179046 0.135556 0.207427
22712 5 0.153331 0.209165 0.198788
22639 2 0.177904 0.151388 0.198256
22708 2 0.177383 0.201904 0.200425
22711 4 0.178375 0.177048 0.200804
22710 3 0.18505 0.209818 0.21179
22932 9 0.189983 0.195548 0.215857
20167 7 0.208838 0.230945 0.214629
20204 6 0.219683 0.243408 0.213092
20092 3 0.236166 0.178253 0.211097
22721 7 0.157488 0.163984 0.239439
20406 9 0.22364 0.183381 0.215835
22966 7 0.169039 0.222688 0.223565
22745 8 0.15518 0.236513 0.243069
20166 6 0.189934 0.174194 0.223656
20206 7 0.175572 0.176279 0.227568
22755 6 0.151603 0.17502 0.234986
20205 7 0.18566 0.164181 0.217758
22762 6 0.17069 0.234048 0.229698
20169 7 0.207772 0.165072 0.237529
20203 6 0.21537 0.165638 0.244641
20170 7 0.226255 0.154749 0.244023
20165 6 0.212803 0.24145 0.244441
20207 7 0.22549 0.248514 0.240493
22679 3 0.169002 0.136314 0.249542
22825 6 0.12454 0.243093 0.217388
20368 9 0.258993 0.207752 0.242115
17582 7 0.293164 0.117316 0.247064
20367 9 0.266426 0.166918 0.249939
20123 3 0.270351 0.151844 0.248838
20091 5 0.294294 0.143265 0.187954
20094 5 0.297575 0.209811 0.191463
17617 7 0.274482 0.242318 0.240117
17827 9 0.36569 0.134334 0.211819
20127 3 0.262668 0.198601 0.247984
17571 3 0.367062 0.207762 0.247084
17549 7 0.289727 0.135268 0.215706
17531 1 0.322841 0.176187 0.193322
20090 5 0.25289 0.139756 0.19039
17551 1 0.331193 0.237569 0.192815
17538 5 0.354084 0.201875 0.192127
20164 5 0.255721 0.207986 0.193005
17543 5 0.35601 0.147368 0.195821
20085 2 0.276052 0.139344 0.19585
20086 8 0.266373 0.17482 0.214812
20087 2 0.27668 0.214667 0.198029
20159 4 0.276702 0.238636 0.20133
20088 5 0.273426 0.15381 0.205474
20093 4 0.277181 0.196669 0.206923
17547 7 0.312645 0.180521 0.219835
17540 3 0.335248 0.236251 0.21258
17579 6 0.323927 0.181585 0.214666
17546 7 0.338038 0.178039 0.217633
20136 6 0.277545 0.168794 0.228761
20413 7 0.269407 0.17568 0.235747
20402 7 0.282534 0.152881 0.23141
17534 8 0.36653 0.238865 0.21361
17580 7 0.336534 0.226034 0.24521
17545 6 0.324424 0.237002 0.24569
17815 9 0.371958 0.194396 0.243387
14997 7 0.365735 0.158573 0.2264
17814 9 0.363274 0.152902 0.242406
15026 6 0.367589 0.169365 0.231819
17850 7 0.369102 0.220299 0.232269
17854 9 0.326134 0.222869 0.214404
17651 6 0.279981 0.243116 0.232886
14925 1 0.432225 0.175055 0.191922
14979 1 0.424531 0.238776 0.189712
14957 7 0.421344 0.196935 0.241912
15031 7 0.395458 0.226576 0.24325
14916 5 0.495533 0.210326 0.188963
12353 7 0.493065 0.191162 0.241593
14958 7 0.418002 0.173292 0.238547
14956 6 0.438613 0.174623 0.212447
17504 3 0.367849 0.141023 0.2478
17533 2 0.37737 0.20075 0.195452
17537 4 0.383252 0.177046 0.198001
17461 2 0.380292 0.151883 0.199048
17539 5 0.39498 0.209602 0.187852
14941 7 0.409228 0.12961 0.213328
14985 4 0.477118 0.240736 0.195044
17536 5 0.373189 0.21743 0.204366
14947 3 0.465239 0.151866 0.245764
15261 9 0.477645 0.161227 0.246404
14991 5 0.454726 0.205492 0.193342
12329 7 0.444521 0.150417 0.232596
12291 6 0.428876 0.15106 0.231201
17468 5 0.39785 0.14157 0.192065
15274 9 0.491146 0.165402 0.208198
14921 7 0.453194 0.167614 0.212349
14919 6 0.411474 0.185861 0.243161
17467 3 0.378525 0.14304 0.211237
15275 9 0.467896 0.203323 0.211736
14908 2 0.478425 0.138694 0.198456
12328 7 0.424496 0.138494 0.235611
14920 7 0.430719 0.166152 0.218512
14912 5 0.456739 0.147333 0.193851
15262 9 0.473777 0.221438 0.242885
14913 5 0.496003 0.145924 0.190413
14910 3 0.481514 0.151571 0.208929
14909 2 0.476115 0.215469 0.196623
14996 7 0.383037 0.168758 0.233169
14915 3 0.48215 0.209504 0.208663
14952 3 0.471935 0.209266 0.248013
22796 7 0.109109 0.248342 0.219309
22955 7 0.170803 0.250014 0.225254
17512 7 0.279786 0.000143324 0.239166
22920 9 0.164239 0.1207 0.249594
25178 3 0.0283533 0.0532597 0.306607
25245 3 0.0246612 0.112741 0.304713
25251 5 0.0181641 0.0495965 0.2862
25246 4 0.0356079 0.0829617 0.292398
25243 2 0.0347713 0.10796 0.293066
25224 1 0.0877369 0.0833751 0.289421
25179 5 0.0580861 0.0517361 0.292202
25173 2 0.0339521 0.0586123 0.294535
25170 1 0.0823577 0.0207554 0.288823
25232 5 0.0795171 0.083408 0.268165
25230 5 0.0799536 0.0264525 0.267757
22671 1 0.109514 0.0544037 0.268257
25171 1 0.0125969 0.05281 0.265581
25229 5 0.0403853 0.0213692 0.264269
25294 1 0.00705409 0.114521 0.26527
25306 5 0.0383461 0.0820345 0.264154
25226 2 0.0603803 0.0903387 0.260323
25225 2 0.0628898 0.0148567 0.260116
25496 9 0.0281055 0.0382489 0.308246
25288 6 0.0988741 0.0878009 0.309613
25497 9 0.019473 0.0985785 0.308026
22619 1 0.113703 0.113693 0.265227
25300 4 0.0569528 0.114782 0.25887
25248 5 0.0575116 0.117329 0.291162
22699 5 0.115501 0.111344 0.286638
22624 5 0.117521 0.0564093 0.28795
25183 7 0.104226 0.0267761 0.307543
25218 6 0.0937086 0.0157359 0.309362
25256 7 0.11068 0.0769988 0.310365
25247 5 0.0181407 0.115374 0.28464
25184 7 0.102535 0.00233026 0.308537
25257 7 0.107184 0.101185 0.309244
1930 7 0.00177149 0.00949497 0.311149
1928 7 8.86959e-05 0.0694356 0.308568
22626 3 0.132981 0.117446 0.30463
22622 3 0.129843 0.0519777 0.307568
22623 4 0.135571 0.0223432 0.295448
22681 5 0.139461 0.0300699 0.265247
22620 2 0.134946 0.0469392 0.295471
19999 4 0.228008 0.0408507 0.300556
19993 2 0.234902 0.0594769 0.292867
20068 2 0.234748 0.109399 0.294107
20071 4 0.231782 0.0839084 0.296649
22625 5 0.158591 0.0541803 0.29197
22627 5 0.158247 0.114049 0.288796
22618 1 0.184049 0.0842611 0.288482
20076 5 0.217475 0.0572396 0.284065
22600 1 0.188132 0.02105 0.291023
22609 5 0.180653 0.0235341 0.271437
22678 5 0.180553 0.0879587 0.267347
19990 1 0.216177 0.0528851 0.266129
22677 5 0.139768 0.0836635 0.262577
20129 5 0.239874 0.0814485 0.262311
20053 5 0.239267 0.0213201 0.261546
22602 2 0.163482 0.0304594 0.263116
22673 2 0.163171 0.0793046 0.259516
22676 4 0.168722 0.0537064 0.260057
19998 3 0.192937 0.0204285 0.310349
19992 8 0.223342 0.0203865 0.310552
20119 1 0.210195 0.114361 0.265265
20072 5 0.21551 0.115646 0.286176
22621 2 0.135241 0.121309 0.292043
20391 9 0.231903 0.114764 0.310784
20070 3 0.231781 0.123966 0.304289
22608 3 0.165344 0.0137387 0.252503
22944 9 0.146841 0.115135 0.307702
20000 5 0.257278 0.054078 0.287989
17448 5 0.359328 0.111476 0.286879
17440 8 0.32509 0.0853947 0.30904
17446 3 0.294406 0.0825861 0.306386
17442 5 0.329289 0.0603678 0.301908
17447 4 0.33101 0.106023 0.300011
17443 4 0.334637 0.0218399 0.295265
17439 2 0.335532 0.0468201 0.292394
20048 1 0.288889 0.082679 0.286907
19989 1 0.281763 0.0217979 0.287421
17445 5 0.358873 0.0525375 0.289123
17444 5 0.31801 0.050751 0.283681
20057 5 0.280801 0.0775397 0.265202
17495 1 0.309784 0.0533157 0.264377
17506 5 0.338083 0.0231383 0.265481
20054 5 0.279378 0.0221362 0.267152
17438 1 0.316489 0.114221 0.263246
17501 5 0.340061 0.0853258 0.260349
17421 2 0.361851 0.0282464 0.261282
20050 2 0.262893 0.0885848 0.258154
20049 2 0.262529 0.0144772 0.258725
17497 2 0.363242 0.077101 0.256344
20040 6 0.284705 0.0191337 0.307233
17500 4 0.364025 0.0513531 0.256607
20073 5 0.258453 0.112633 0.289865
20124 4 0.266881 0.113474 0.259238
17524 5 0.319863 0.115672 0.281942
17441 2 0.336827 0.120037 0.290422
20004 7 0.298021 0.0128551 0.31123
1860 9 0.00342506 0.12707 0.418479
17187 9 0.366396 0.00351835 0.392288
20005 7 0.273609 0.0216046 0.312453
17857 9 0.282152 0.0826537 0.31199
17380 7 0.415156 0.0119204 0.308004
17502 5 0.38129 0.0824828 0.264647
17428 5 0.380096 0.0231087 0.269458
17437 1 0.385016 0.0823162 0.285279
14822 3 0.430232 0.0519366 0.302802
14891 4 0.43815 0.0850692 0.292409
14817 2 0.437192 0.0592662 0.291486
14887 2 0.435105 0.11043 0.289851
14823 5 0.45888 0.0491388 0.289114
17418 1 0.388218 0.0197677 0.28759
14893 5 0.45787 0.116706 0.286211
14897 5 0.419888 0.053136 0.283502
14892 5 0.416446 0.112604 0.281423
14866 1 0.487123 0.0847392 0.284595
14814 1 0.478566 0.0196857 0.285339
14873 5 0.47689 0.0170396 0.265477
14876 5 0.480139 0.0805612 0.263383
14815 1 0.415892 0.0500392 0.264144
14943 1 0.410308 0.114299 0.264455
14954 5 0.440257 0.0819027 0.26229
17412 6 0.401811 0.0203031 0.307072
14869 2 0.460849 0.0888724 0.256272
14872 5 0.435717 0.00825606 0.261743
14867 2 0.459538 0.0086477 0.257334
14948 4 0.463912 0.113911 0.253348
14860 6 0.491062 0.0907362 0.304707
17379 7 0.406392 0.0355476 0.307802
15286 9 0.434583 0.0632455 0.308257
14903 7 0.43779 0.093551 0.31127
25255 7 0.0945391 0.165091 0.31349
25296 2 0.0591128 0.1401 0.260636
25241 1 0.0819255 0.147275 0.289358
25249 3 0.0213393 0.179051 0.302516
25360 6 0.0964545 0.205409 0.306215
25320 4 0.0307694 0.210304 0.291455
25317 2 0.0336972 0.235157 0.292224
25295 1 0.0855784 0.209629 0.286206
25250 5 0.0558409 0.177817 0.290617
25244 2 0.032512 0.185421 0.291495
25325 5 0.0155157 0.177395 0.283079
25302 5 0.0793933 0.14712 0.267151
25305 5 0.0799876 0.210517 0.26657
22742 1 0.107565 0.175844 0.267278
25301 5 0.0389801 0.14838 0.266438
25242 1 0.0130361 0.17695 0.26349
25376 5 0.040025 0.218243 0.263491
25298 2 0.0627499 0.215949 0.258004
25289 6 0.0845941 0.154126 0.310337
25366 1 0.00870899 0.240489 0.263677
25498 9 0.0123865 0.191746 0.305539
25371 4 0.0676541 0.239605 0.253795
22690 1 0.115721 0.237267 0.263211
22773 5 0.1184 0.239926 0.282241
25322 5 0.0566116 0.241677 0.288162
22695 5 0.115032 0.179034 0.286649
25330 7 0.104622 0.218253 0.308065
25499 9 0.030967 0.239264 0.308962
25321 5 0.0144464 0.244773 0.285383
25331 7 0.10807 0.194758 0.305923
25299 5 0.055779 0.154164 0.250375
25319 3 0.0335693 0.248048 0.303175
1402 3 0.00331583 0.180606 0.424115
22697 3 0.126458 0.240011 0.302425
22293 9 0.178925 0.000464671 0.393488
22945 9 0.13424 0.157623 0.309562
22693 3 0.130544 0.172346 0.30664
22694 4 0.133783 0.146744 0.290677
22691 2 0.134072 0.17093 0.293631
22748 4 0.164479 0.17399 0.25787
22674 2 0.162648 0.148866 0.259833
22754 5 0.139416 0.141616 0.263576
20202 5 0.240124 0.21047 0.262283
22672 1 0.187114 0.146858 0.286485
20142 4 0.237309 0.208246 0.295161
20147 5 0.217686 0.179458 0.283439
22696 5 0.157439 0.179791 0.291446
20074 3 0.224839 0.17003 0.302004
20069 2 0.234117 0.183583 0.29226
22689 1 0.181318 0.210639 0.288885
20392 9 0.232331 0.155572 0.302088
20139 2 0.234411 0.233192 0.293915
20067 1 0.214618 0.176818 0.264482
22680 5 0.180226 0.144633 0.268639
22750 5 0.178793 0.20566 0.269541
22749 5 0.137677 0.199227 0.265912
20125 5 0.240077 0.14264 0.263268
22744 2 0.161688 0.198626 0.261385
22737 6 0.198545 0.210808 0.308341
22736 6 0.188798 0.14659 0.307902
22698 5 0.158198 0.238416 0.288777
20190 1 0.209973 0.23938 0.265446
20143 5 0.215406 0.240111 0.287093
22704 7 0.200022 0.135505 0.309084
20393 9 0.23714 0.232931 0.310772
20141 3 0.232317 0.24462 0.305516
22702 7 0.209592 0.200786 0.306781
22692 2 0.13481 0.246991 0.291323
22705 7 0.19856 0.160056 0.308419
22703 7 0.206611 0.223877 0.308353
22747 5 0.159721 0.21406 0.251656
22952 7 0.139901 0.227878 0.315289
17572 4 0.365092 0.176296 0.258282
20126 5 0.281057 0.145649 0.267542
20075 5 0.257347 0.175039 0.28929
20066 1 0.283043 0.146479 0.288013
17516 2 0.336357 0.169686 0.293231
17518 3 0.331462 0.175676 0.305761
20114 6 0.298486 0.205197 0.306893
17519 4 0.33702 0.144355 0.293008
17521 5 0.358671 0.177791 0.290042
20120 1 0.287221 0.207359 0.28712
17520 5 0.31848 0.176437 0.285022
17595 5 0.316722 0.235891 0.286182
17567 1 0.310509 0.175807 0.265165
20128 5 0.282137 0.203879 0.265749
17577 5 0.34061 0.144149 0.261898
17573 5 0.339842 0.208765 0.262859
17498 2 0.364815 0.151098 0.25927
20121 2 0.263214 0.138616 0.259331
17569 2 0.362433 0.201225 0.25919
20122 2 0.26383 0.212784 0.2587
20196 4 0.26843 0.23841 0.256957
20113 6 0.291452 0.147565 0.308265
17523 5 0.35701 0.237358 0.289073
17515 1 0.315585 0.239007 0.265145
17839 9 0.337753 0.164524 0.309897
17840 9 0.321024 0.231761 0.306789
20144 5 0.256704 0.241348 0.288906
17522 3 0.333729 0.241146 0.30536
17529 7 0.3581 0.20067 0.309146
17530 7 0.361469 0.222344 0.304666
20079 7 0.304908 0.19171 0.308628
20081 7 0.30702 0.149854 0.310075
17517 2 0.334593 0.24574 0.293094
20080 7 0.284486 0.207427 0.311172
14890 5 0.429007 0.125545 0.29885
17561 6 0.370152 0.210873 0.307721
14966 3 0.429703 0.242242 0.304839
15020 4 0.462676 0.24318 0.258099
17505 5 0.381699 0.144094 0.267544
17574 5 0.380551 0.210243 0.266262
17514 1 0.38177 0.208721 0.287515
14945 2 0.460791 0.138568 0.256333
14886 1 0.415313 0.178476 0.26343
14894 3 0.392512 0.148218 0.306525
14972 5 0.41758 0.180959 0.281238
14896 5 0.45905 0.178085 0.285851
14888 8 0.423051 0.148684 0.307257
12342 3 0.490592 0.21051 0.305718
14895 4 0.431203 0.170614 0.29865
14964 2 0.434576 0.236088 0.293042
14967 4 0.435776 0.210686 0.291369
14889 2 0.435483 0.185609 0.28933
17496 1 0.389163 0.14533 0.287698
14944 1 0.489298 0.211648 0.287081
14885 1 0.480124 0.147241 0.284723
14953 5 0.478884 0.211208 0.267597
14936 6 0.489117 0.158279 0.304207
14950 5 0.476682 0.1437 0.265284
15025 5 0.440557 0.207108 0.26165
14949 5 0.437967 0.145242 0.260636
14946 2 0.462044 0.217602 0.258867
15015 1 0.408825 0.24083 0.265354
14969 5 0.457247 0.244669 0.289407
14968 5 0.417376 0.245013 0.28545
14901 7 0.47856 0.159116 0.309724
14900 7 0.498767 0.17066 0.306217
12753 9 0.479935 0.213305 0.312159
15305 9 0.381554 0.149712 0.312531
24819 9 0.0314423 0.00670153 0.339288
24544 6 0.0892237 0.0268525 0.333861
24654 7 0.109787 0.0872553 0.333425
24655 7 0.0932597 0.0791917 0.325848
24614 6 0.0954182 0.0812037 0.333504
24820 9 0.0336558 0.0490199 0.332751
24550 1 0.0900083 0.0834127 0.354082
24571 2 0.0359496 0.0580315 0.348965
24576 3 0.0326095 0.0415009 0.339794
24577 5 0.0585858 0.0515285 0.352839
24639 2 0.0354305 0.107899 0.349034
24643 4 0.0334981 0.0833136 0.346374
24644 5 0.0185709 0.114297 0.35842
24645 5 0.0604323 0.109987 0.350756
24649 5 0.0190457 0.054 0.358067
24568 1 0.0846352 0.023497 0.354276
22022 5 0.115321 0.0581584 0.354238
22097 5 0.12153 0.113839 0.35575
24582 7 0.0898395 0.0157958 0.328321
24581 7 0.0863738 0.0404029 0.330255
24642 5 0.026678 0.124244 0.340499
22017 1 0.118778 0.114275 0.375479
24560 5 0.0861458 0.0833051 0.375439
22267 9 0.122071 0.0603508 0.335437
24557 5 0.0842097 0.0233538 0.376092
22943 9 0.144121 0.052921 0.311792
20409 9 0.183966 0.0129332 0.316625
22266 9 0.119135 0.000400153 0.336941
22020 3 0.136535 0.0545805 0.337442
22024 3 0.133879 0.111086 0.335871
22633 7 0.177269 0.0540807 0.319484
22665 6 0.166697 0.0646996 0.318781
22634 7 0.157153 0.0629014 0.325044
22032 7 0.204809 0.00807199 0.337028
22021 4 0.134332 0.0230688 0.35159
20065 6 0.246542 0.0230863 0.321445
22631 7 0.179002 0.0831879 0.328153
22632 7 0.178188 0.103229 0.336066
19714 9 0.23087 0.0733126 0.334265
22666 6 0.187257 0.0901488 0.334869
19468 3 0.23757 0.107395 0.335476
19398 3 0.228952 0.0587729 0.336959
19466 2 0.23961 0.107797 0.348176
19469 4 0.241557 0.0827724 0.351544
19393 2 0.238786 0.0581002 0.348974
19474 5 0.221984 0.0488427 0.35695
22016 1 0.185739 0.0819576 0.354537
22018 2 0.13624 0.0473917 0.349681
22023 5 0.159643 0.0544584 0.353444
22025 5 0.163134 0.112292 0.35015
21925 1 0.189849 0.0208725 0.356063
21991 6 0.1978 0.0227741 0.336426
22031 7 0.209262 0.0340787 0.335972