ITEM: TIMESTEP
4000
ITEM: NUMBER OF ATOMS
25520
ITEM: BOX BOUNDS pp pp pp
6.5472179500000005e-01 5.9043821794999999e+01
-8.9085736299999996e-01 5.8061142637000003e+01
-1.0494733796999999e+01 1.0977046620300000e+02
ITEM: ATOMS id type xs ys zs
25219 7 0.0471218 0.0611341 0.119565
25182 6 0.0317919 0.0567213 0.118955
25292 7 0.104641 0.0882923 0.120316
22740 7 0.183445 0.115599 0.118273
22630 6 0.16243 0.0818363 0.112589
22667 7 0.177034 0.0772577 0.115441
20003 6 0.258985 0.033175 0.113898
20041 7 0.251671 0.0230761 0.118858
20042 7 0.270771 0.0236647 0.111026
20117 7 0.279181 0.0559784 0.122866
17490 7 0.355915 0.0795282 0.115935
17451 6 0.370904 0.0815348 0.112534
14826 6 0.473321 0.0254031 0.118631
14939 7 0.484331 0.0728732 0.12017
17491 7 0.385617 0.0026889 0.11352
17565 7 0.380084 0.135427 0.114624
14861 7 0.47818 0.0371858 0.123538
17489 7 0.38069 0.0819128 0.118696
17450 6 0.38588 0.00690782 0.121073
14898 6 0.482319 0.0672683 0.127478
25326 6 0.0493802 0.199021 0.113994
25365 7 0.0372158 0.201847 0.119688
25364 7 0.0560164 0.213758 0.113409
25363 7 0.080086 0.250356 0.114681
14913 5 0.49982 0.115045 0.171673
22701 6 0.168566 0.206883 0.114551
22700 6 0.18732 0.129622 0.121343
22738 7 0.172493 0.221856 0.117268
22741 7 0.182768 0.140409 0.115881
22739 7 0.156384 0.201928 0.119597
20078 6 0.275373 0.132997 0.114884
17526 6 0.350315 0.23582 0.115288
17564 7 0.347161 0.220965 0.118231
20115 7 0.267662 0.132832 0.107813
20148 6 0.244698 0.18535 0.112337
20188 7 0.245759 0.170203 0.115876
20189 7 0.244217 0.196506 0.118441
17563 7 0.346097 0.24695 0.12057
20116 7 0.262572 0.134298 0.119995
14899 6 0.461126 0.152469 0.110097
14937 7 0.469 0.164725 0.113598
14973 6 0.482957 0.193784 0.120618
15013 7 0.488042 0.202445 0.114585
17636 7 0.4049 0.225073 0.125077
17525 6 0.382203 0.138815 0.122103
14938 7 0.448776 0.148409 0.114871
15014 7 0.467033 0.19652 0.120261
25293 7 0.0814553 0.0957988 0.123607
25287 5 0.0233087 0.0226176 0.158408
25283 5 0.0604085 0.0833381 0.151625
25282 5 0.0236915 0.0818941 0.159185
25281 4 0.0343385 0.0529662 0.143895
25280 5 0.0246369 0.0943864 0.140737
25278 8 0.0126558 0.117894 0.134125
25277 2 0.0363714 0.0779139 0.148357
25275 1 0.0857944 0.117471 0.156639
25268 5 0.0605803 0.0474426 0.175201
25265 5 0.0964281 0.12077 0.177627
25264 5 0.0551072 0.121316 0.18395
25258 1 0.0280285 0.0905823 0.175387
25252 6 0.0890642 0.0850442 0.118873
22660 5 0.111885 0.0229559 0.148572
25220 7 0.0303978 0.0498182 0.126228
25215 5 0.057083 0.0171815 0.147861
25214 3 0.015796 0.0143135 0.137599
25209 2 0.0326013 0.0264382 0.146681
25207 1 0.0294681 0.023198 0.176457
25198 5 0.102055 0.0536547 0.176974
25191 2 0.0789905 0.0594937 0.182115
22735 5 0.113687 0.0787916 0.150648
25188 1 0.0878504 0.0503376 0.154564
25263 4 0.0786624 0.0870015 0.182319
25260 2 0.0796203 0.111677 0.186006
22906 9 0.11241 0.0676807 0.129592
20029 1 0.234984 0.0228166 0.170997
20031 2 0.23003 0.0251588 0.142402
20036 3 0.225838 0.01179 0.131028
20083 1 0.227471 0.0843978 0.169987
20104 2 0.230662 0.076786 0.140721
20106 3 0.236523 0.0848539 0.128883
20107 4 0.226949 0.0504656 0.141103
20108 5 0.210664 0.0868286 0.146918
20112 5 0.211924 0.0177595 0.15055
20352 9 0.210078 0.00992553 0.129248
22635 1 0.128079 0.0213085 0.17217
22636 1 0.184572 0.115099 0.150271
22637 2 0.181854 0.0466947 0.181456
22639 2 0.180215 0.12288 0.178445
22642 5 0.160042 0.0482074 0.174563
22643 5 0.202377 0.0550684 0.174648
22646 5 0.201762 0.115417 0.172366
22654 1 0.180286 0.0512729 0.153324
22655 1 0.133059 0.0850409 0.172371
22656 2 0.133822 0.0141412 0.143965
22657 2 0.131617 0.0852558 0.141839
22658 3 0.137664 0.0219297 0.131864
22661 5 0.154493 0.0204543 0.151184
22662 3 0.128238 0.0690305 0.131977
22663 5 0.153878 0.0805683 0.147663
22668 7 0.152744 0.0755479 0.117934
17576 5 0.405983 0.240459 0.247104
22716 5 0.160936 0.112328 0.171439
22729 4 0.131781 0.11113 0.139988
22905 9 0.133127 0.0380086 0.130637
20353 9 0.234196 0.101215 0.127858
22641 4 0.186611 0.0206063 0.182567
20077 6 0.281112 0.0643654 0.130348
17458 1 0.329913 0.0242811 0.169845
17464 5 0.360756 0.060202 0.170997
17477 1 0.334373 0.0857402 0.171807
17478 2 0.332912 0.0122315 0.139864
17479 2 0.334346 0.0872331 0.140511
17480 3 0.333269 0.0231205 0.12787
17482 5 0.31319 0.0217092 0.146937
17483 5 0.355196 0.0178297 0.145553
17484 3 0.330437 0.0718152 0.129944
17485 5 0.354349 0.0787775 0.147194
17492 7 0.37045 0.0123515 0.122856
17543 5 0.361161 0.116455 0.173293
17555 4 0.336256 0.113044 0.138652
17560 5 0.314137 0.083408 0.148287
17799 9 0.332553 0.0400772 0.128764
17800 9 0.314076 0.0712538 0.12834
20011 1 0.285576 0.0521392 0.149271
20013 2 0.281745 0.0592517 0.181081
20020 5 0.301061 0.0550719 0.172354
20037 5 0.252911 0.0195377 0.147191
20085 2 0.280386 0.110331 0.179616
20090 5 0.258789 0.108194 0.172591
20091 5 0.300754 0.117078 0.172737
20095 5 0.260181 0.0521444 0.174967
20102 1 0.280501 0.112244 0.151769
20109 5 0.251895 0.0824008 0.148028
20118 7 0.266114 0.0724045 0.129844
20089 4 0.280879 0.0855765 0.183795
14832 1 0.482293 0.051206 0.154089
14834 2 0.482255 0.0549884 0.181275
14849 1 0.434206 0.0205283 0.171776
14851 2 0.430079 0.0245891 0.141609
14856 3 0.430322 0.0078136 0.131036
14857 5 0.451523 0.0223524 0.148258
14862 7 0.459957 0.0193776 0.12235
14906 1 0.428889 0.080523 0.171357
14908 2 0.479776 0.10643 0.178541
14912 5 0.459102 0.114413 0.171263
14917 5 0.4596 0.0487406 0.175489
14924 1 0.477854 0.110279 0.149822
14926 2 0.429069 0.0766766 0.140079
14928 3 0.426921 0.0876959 0.128256
14929 4 0.42633 0.0500325 0.138861
14930 5 0.410398 0.0841533 0.147895
14931 5 0.450947 0.0798113 0.146166
14934 5 0.410504 0.0138189 0.148176
14940 7 0.466874 0.0721642 0.128708
15246 9 0.415528 0.0111192 0.127101
15247 9 0.434152 0.102082 0.128037
17459 1 0.384947 0.114327 0.151703
17460 2 0.381501 0.0482099 0.176108
17461 2 0.383552 0.121062 0.179953
17465 5 0.403897 0.0552712 0.170084
17468 5 0.403936 0.113867 0.173037
17476 1 0.379656 0.049939 0.149621
14911 4 0.484442 0.0808233 0.179952
17463 4 0.380071 0.0226548 0.174911
25253 6 0.0796287 0.122781 0.135544
25459 9 0.0116112 0.199293 0.132762
25359 5 0.0285279 0.144217 0.164222
25356 5 0.0556637 0.20867 0.149743
25355 5 0.0128223 0.21362 0.155015
25354 4 0.028787 0.177363 0.150521
25353 3 0.0255847 0.20594 0.134724
25351 2 0.03091 0.202676 0.147461
25349 1 0.0843593 0.238092 0.148905
25342 5 0.0577141 0.183613 0.183832
25338 5 0.0578143 0.236174 0.179063
25334 2 0.0845248 0.236866 0.181737
25332 1 0.027226 0.21509 0.181504
25291 7 0.0683228 0.134183 0.138573
25290 7 0.0935176 0.131993 0.134113
25286 5 0.0583675 0.146813 0.151278
25285 4 0.0208138 0.140596 0.142957
25279 2 0.0333521 0.15175 0.15216
25276 1 0.0283666 0.153235 0.182384
25267 5 0.0983872 0.178584 0.174859
25261 2 0.0845263 0.186318 0.184662
25259 1 0.0891424 0.178792 0.152354
22730 5 0.11354 0.139625 0.151358
22732 3 0.0830232 0.17733 0.132221
22957 9 0.0701816 0.186743 0.127996
22807 5 0.115225 0.213635 0.146611
25337 4 0.0906376 0.212218 0.185325
22726 8 0.112897 0.175238 0.126564
25339 5 0.0977375 0.241795 0.171183
20103 1 0.233221 0.147447 0.169697
20105 2 0.233581 0.148797 0.139659
20110 3 0.231594 0.134006 0.128652
20154 1 0.228614 0.21246 0.167469
20173 2 0.23616 0.200464 0.139371
20174 8 0.219177 0.240843 0.125054
20176 5 0.234625 0.214502 0.128607
20177 4 0.236677 0.173782 0.137396
20178 5 0.214766 0.207592 0.145967
20180 3 0.187412 0.242638 0.127651
20183 5 0.212633 0.144573 0.147129
20354 9 0.216577 0.135992 0.125614
22706 1 0.127155 0.149394 0.17296
22707 1 0.188501 0.239819 0.147648
22708 2 0.180978 0.175322 0.176901
22709 2 0.181268 0.248745 0.178344
22712 5 0.159403 0.182124 0.171221
22713 5 0.202183 0.182876 0.170558
22715 5 0.198507 0.242847 0.169223
22723 1 0.181062 0.178137 0.148756
22724 1 0.132189 0.212226 0.168139
22725 2 0.132526 0.137167 0.142943
22727 2 0.135744 0.214737 0.138539
22728 5 0.125218 0.152127 0.133621
22731 5 0.154542 0.146859 0.14784
22733 4 0.130787 0.199369 0.128777
22734 5 0.154835 0.205504 0.145769
22790 5 0.158011 0.245763 0.172733
22802 4 0.139555 0.240097 0.135806
22711 4 0.180589 0.149471 0.17789
17566 7 0.367856 0.142482 0.125068
17531 1 0.327124 0.146063 0.170034
17538 5 0.359694 0.17482 0.170791
17551 1 0.332814 0.208556 0.169733
17552 2 0.332372 0.138828 0.140201
17553 2 0.332582 0.214148 0.1399
17554 3 0.336983 0.150378 0.128726
17556 5 0.312147 0.146907 0.147082
17557 5 0.352737 0.14625 0.147288
17558 3 0.333239 0.199042 0.129071
17559 5 0.351455 0.204569 0.147662
17612 5 0.36141 0.235654 0.170983
17625 4 0.336946 0.239902 0.13822
17631 5 0.310287 0.209715 0.146028
17801 9 0.335043 0.166837 0.129098
17802 9 0.317581 0.192121 0.128092
20084 1 0.285159 0.176525 0.149581
20087 2 0.277959 0.183861 0.176627
20094 5 0.300137 0.174909 0.171591
20111 5 0.253438 0.142484 0.147721
20156 2 0.280196 0.235115 0.17963
20160 5 0.258157 0.244537 0.173618
20161 5 0.300552 0.241576 0.172753
20164 5 0.258282 0.177347 0.169203
20171 1 0.279347 0.240677 0.150957
20179 5 0.255311 0.209854 0.146668
20159 4 0.277244 0.209487 0.1777
14907 1 0.482789 0.1742 0.151417
14909 2 0.484297 0.181538 0.180094
14925 1 0.434895 0.145459 0.169384
14927 2 0.432405 0.150013 0.139012
14932 3 0.431587 0.140579 0.126879
14933 5 0.452823 0.139701 0.1456
14979 1 0.430762 0.207351 0.168486
14981 2 0.484623 0.233347 0.179914
14986 5 0.461866 0.234272 0.173184
14991 5 0.462694 0.177755 0.172767
14998 1 0.477981 0.239021 0.151229
15000 2 0.433743 0.201339 0.139497
15002 3 0.433945 0.214151 0.127929
15003 4 0.436964 0.17549 0.139558
15004 5 0.410983 0.205767 0.145767
15005 5 0.452906 0.210088 0.147323
15008 5 0.411298 0.144632 0.145669
15248 9 0.414975 0.139308 0.124418
15249 9 0.441544 0.22899 0.128963
17532 1 0.385084 0.239069 0.150786
17533 2 0.383087 0.172496 0.176624
17535 2 0.382719 0.242083 0.178092
17539 5 0.403978 0.179837 0.169592
17542 5 0.403723 0.234856 0.171418
17550 1 0.379868 0.175574 0.149459
17537 4 0.386705 0.147302 0.181516
14985 4 0.486793 0.207506 0.181837
25192 5 0.0728756 0.000493912 0.189692
25517 7 0.0800026 0.033354 0.21906
25510 9 0.019817 0.0258043 0.201113
17574 5 0.403217 0.184079 0.247768
25472 9 0.0761702 0.0572342 0.229727
25471 9 0.0869451 0.0135231 0.234673
25312 7 0.0106924 0.061697 0.225977
25311 7 0.0384824 0.0688676 0.224252
25310 7 0.040362 0.0970211 0.217568
25308 6 0.0259213 0.0776535 0.196701
25300 4 0.0767886 0.0826482 0.24629
25299 5 0.0716839 0.122566 0.238994
25296 2 0.0726355 0.108444 0.249441
25272 7 0.0295441 0.0613309 0.196842
25270 6 0.0538109 0.0876903 0.218237
25269 6 0.026176 0.0626817 0.22987
25262 3 0.0904971 0.11176 0.197733
25240 6 0.0735945 0.0189658 0.214342
22651 7 0.106879 0.00386033 0.192969
25231 3 0.0841529 0.0484937 0.235818
25226 2 0.0769308 0.0571863 0.247298
22685 7 0.121216 0.0551763 0.225378
25197 4 0.0746086 0.0484554 0.19308
25196 3 0.033931 0.0274492 0.19582
25190 8 0.0643818 0.0231951 0.199381
22760 7 0.104764 0.103805 0.236737
25309 7 0.0614585 0.0964905 0.224081
25271 7 0.0351804 0.082667 0.203151
22717 6 0.120474 0.0996251 0.233911
25484 9 0.0836818 0.123673 0.202234
17541 4 0.377536 0.230943 0.188983
17515 1 0.334979 0.211391 0.249388
20096 6 0.23044 0.0244892 0.228471
20097 6 0.223507 0.091383 0.2308
20099 7 0.239098 0.107336 0.210641
20100 7 0.227018 0.0620409 0.20489
20101 7 0.20317 0.0554431 0.200461
20130 6 0.217191 0.0491713 0.204431
20131 6 0.249396 0.0945177 0.209978
20133 7 0.208511 0.0988263 0.230659
20134 7 0.239716 0.0262062 0.221959
20135 7 0.219206 0.0352777 0.226341
22638 8 0.167366 0.0867731 0.198385
22640 5 0.177314 0.0623954 0.191305
22644 3 0.136609 0.0877522 0.192919
22645 4 0.176538 0.107646 0.188589
22649 6 0.134713 0.0559291 0.220854
22650 7 0.120177 0.0165857 0.202208
22673 2 0.177705 0.0507953 0.244413
22675 3 0.177401 0.0525456 0.231353
22676 4 0.178736 0.0244625 0.245495
22679 3 0.177044 0.11206 0.234068
22683 6 0.122469 0.00665889 0.195954
22684 7 0.132711 0.0713241 0.217853
22688 6 0.186781 0.0921748 0.211612
22965 7 0.181848 0.105141 0.216631
22759 7 0.123896 0.111113 0.22811
22958 9 0.124852 0.0970797 0.197101
22919 9 0.162468 0.0542715 0.228474
22920 9 0.162517 0.106637 0.232098
22954 7 0.186767 0.0777312 0.217295
20060 6 0.239941 0.0226975 0.191525
20025 7 0.225592 0.0297789 0.195083
25506 7 0.085847 0.0068747 0.216424
20132 7 0.22756 0.09013 0.22335
22722 7 0.116182 0.125794 0.214337
22755 6 0.130562 0.131102 0.217057
22674 2 0.176902 0.123743 0.245812
17569 2 0.382389 0.175277 0.240793
20098 7 0.257067 0.0990345 0.20351
17456 7 0.318807 0.0269209 0.223612
17457 7 0.309562 0.00873637 0.231868
17466 6 0.332437 0.0246916 0.1919
17471 6 0.308698 0.0519362 0.214161
17472 7 0.328576 0.100352 0.195506
17473 7 0.328116 0.0756567 0.199656
17493 7 0.318265 0.0314915 0.194572
17494 7 0.333374 0.0133953 0.197429
17503 6 0.324479 0.0161017 0.229644
17508 6 0.333161 0.0847983 0.193457
17509 7 0.299524 0.0482277 0.207646
17510 7 0.296867 0.0572945 0.219557
17544 6 0.338658 0.0884495 0.228882
17549 7 0.30358 0.13324 0.202698
17578 6 0.316676 0.123606 0.204633
17582 7 0.334986 0.0739168 0.225299
17583 7 0.333526 0.0985988 0.222878
17814 9 0.372671 0.109366 0.227613
17826 9 0.366484 0.0463258 0.192237
20019 3 0.286018 0.0461708 0.192541
20050 2 0.278822 0.0639847 0.243774
20056 3 0.274891 0.0593466 0.231096
20121 2 0.28025 0.115373 0.245013
20123 3 0.277824 0.124096 0.232516
20124 4 0.27983 0.0892811 0.245513
20366 9 0.262756 0.068604 0.228068
20379 9 0.273855 0.0353587 0.193528
20378 9 0.273636 0.00554165 0.192161
17501 5 0.358054 0.0558437 0.249511
20057 5 0.299913 0.0526628 0.249045
12407 7 0.492206 0.107752 0.203459
12408 7 0.489584 0.107994 0.215972
15021 5 0.46069 0.24519 0.246341
14839 3 0.480765 0.0434985 0.193124
14868 8 0.461645 0.0197547 0.228345
14869 2 0.477396 0.0547651 0.246924
14874 3 0.43095 0.0162839 0.233201
14875 4 0.472918 0.0409599 0.237064
14884 6 0.461676 0.0191621 0.212174
14904 7 0.44057 0.0987637 0.232244
14905 7 0.413758 0.0998353 0.233744
14910 3 0.477435 0.118471 0.190444
14914 6 0.429203 0.0854659 0.192102
14918 6 0.426571 0.062459 0.212248
14922 7 0.427192 0.0363407 0.197003
14923 7 0.406741 0.0285873 0.190893
14941 7 0.41515 0.0943463 0.193656
14942 7 0.431378 0.0761372 0.199123
14945 2 0.477097 0.105956 0.243126
14947 3 0.475958 0.112345 0.230557
14948 4 0.477196 0.0806246 0.24608
14951 6 0.426644 0.0891444 0.232262
14955 6 0.421785 0.0232546 0.192802
14959 7 0.429498 0.0762229 0.216288
14960 7 0.412243 0.0586223 0.214928
15273 9 0.493528 0.0483119 0.197831
15297 7 0.471387 0.0328834 0.208306
15303 9 0.416354 0.0220087 0.229029
15308 7 0.445596 0.0196628 0.208234
17462 3 0.37936 0.0548032 0.188985
17467 3 0.383939 0.109439 0.191689
17497 2 0.378782 0.0457717 0.243761
17498 2 0.38165 0.123351 0.243104
17499 3 0.385023 0.0524413 0.231268
17500 4 0.377968 0.0199051 0.245408
17504 3 0.38621 0.116329 0.23068
17813 9 0.39841 0.0627014 0.231598
17827 9 0.379634 0.0933747 0.191078
15274 9 0.461531 0.124192 0.190898
14949 5 0.456562 0.115796 0.248928
20365 9 0.265974 0.00384719 0.230716
15261 9 0.465955 0.12514 0.228953
15272 9 0.48077 0.00863153 0.192554
14950 5 0.49906 0.115254 0.24862
25366 1 0.0205538 0.209724 0.247863
25486 9 0.103447 0.248816 0.195609
25372 5 0.0547082 0.245551 0.248121
25518 7 0.0578345 0.147992 0.208766
25512 9 0.0202862 0.149932 0.225457
25507 7 0.0814813 0.16321 0.211885
25485 9 0.11101 0.168606 0.192868
25382 7 0.0285406 0.229055 0.227425
25381 7 0.053281 0.219331 0.227113
20196 4 0.281005 0.209859 0.246265
25377 6 0.0186903 0.142333 0.202356
25371 4 0.0797614 0.209878 0.245684
25370 3 0.0819006 0.24205 0.231536
25368 2 0.0771664 0.235881 0.24362
25348 7 0.0205319 0.133964 0.209317
25347 7 0.0017134 0.145012 0.202442
25343 6 0.0380791 0.215373 0.228328
25314 6 0.0720588 0.148425 0.214616
25304 4 0.0735716 0.167337 0.239788
25303 3 0.0314987 0.147245 0.231938
25298 2 0.0747502 0.185062 0.248894
25297 8 0.0641466 0.145424 0.230027
25266 3 0.0951714 0.172954 0.194735
22758 7 0.104529 0.165964 0.235947
22796 7 0.12177 0.204157 0.191281
22960 9 0.113623 0.212786 0.230415
22718 6 0.12104 0.162653 0.23783
17570 2 0.384832 0.247498 0.240539
22721 7 0.127541 0.14496 0.221049
22720 7 0.136368 0.145612 0.201124
20092 3 0.231753 0.150238 0.189764
20165 6 0.219687 0.200224 0.23594
20166 6 0.20757 0.240768 0.217293
20168 7 0.220862 0.228759 0.204269
20169 7 0.215066 0.194329 0.203546
20170 7 0.195365 0.192459 0.211199
20203 6 0.209453 0.185658 0.20946
20204 6 0.225851 0.228568 0.196307
20206 7 0.196317 0.23641 0.223053
20207 7 0.219065 0.190083 0.22962
20208 7 0.203015 0.19973 0.237764
20406 9 0.218612 0.160885 0.193006
22710 3 0.180913 0.186817 0.188534
22714 3 0.183985 0.232097 0.187764
22719 7 0.156462 0.156232 0.195236
22744 2 0.175541 0.175728 0.248391
22745 8 0.158487 0.209147 0.228528
22746 2 0.178083 0.246607 0.245051
22747 5 0.169957 0.189915 0.238272
22748 4 0.179867 0.14978 0.245767
22966 7 0.154155 0.20751 0.206891
22751 3 0.129078 0.211552 0.234543
22752 4 0.17651 0.231419 0.23474
22756 6 0.140094 0.153044 0.193934
22757 7 0.129018 0.177141 0.238501
22762 6 0.167668 0.208594 0.212837
22795 7 0.139526 0.22066 0.194709
22955 7 0.175159 0.225351 0.210401
22825 6 0.13736 0.207386 0.189967
22932 9 0.174319 0.202143 0.188057
22933 9 0.199695 0.234347 0.191554
17548 7 0.329227 0.132982 0.204858
20088 5 0.273639 0.127528 0.188151
20367 9 0.277512 0.141073 0.232637
17573 5 0.359432 0.179484 0.246176
17534 8 0.364153 0.206884 0.195226
17540 3 0.332789 0.206562 0.189174
17545 6 0.320646 0.207675 0.229318
17546 7 0.367865 0.160096 0.205027
17547 7 0.366451 0.135173 0.202164
17579 6 0.360814 0.146666 0.207118
17580 7 0.318795 0.220519 0.224239
17581 7 0.30567 0.201504 0.229842
17584 6 0.357575 0.201143 0.210505
17854 9 0.319065 0.210903 0.193764
17861 7 0.341289 0.206254 0.213495
20086 8 0.26116 0.14992 0.195605
20093 4 0.272465 0.172141 0.187477
20122 2 0.278355 0.183735 0.246434
20127 3 0.27792 0.172484 0.234467
20136 6 0.269019 0.146673 0.211182
20158 3 0.284507 0.238192 0.192566
20192 2 0.280043 0.235229 0.248525
20024 7 0.2426 0.0101515 0.196208
20368 9 0.265839 0.179675 0.230059
20402 7 0.26815 0.130473 0.215193
20413 7 0.281301 0.155791 0.215141
20380 9 0.27002 0.23785 0.196397
17618 7 0.302225 0.233625 0.20566
17651 6 0.313715 0.235296 0.21133
17536 5 0.379764 0.187096 0.186847
17571 3 0.384727 0.185263 0.229156
14956 6 0.434216 0.145679 0.191759
17577 5 0.358196 0.119448 0.248263
15025 5 0.46223 0.173981 0.24862
14995 7 0.411397 0.20001 0.192622
14994 7 0.416208 0.222412 0.199309
15019 3 0.491564 0.246525 0.230434
15017 2 0.483533 0.237754 0.241974
14946 2 0.481488 0.185701 0.241883
15020 4 0.482744 0.211571 0.244153
14920 7 0.438419 0.154083 0.198477
14997 7 0.44028 0.188979 0.205528
14996 7 0.460413 0.173028 0.205725
14957 7 0.435445 0.1532 0.222172
14992 6 0.4311 0.200444 0.228222
17815 9 0.383964 0.201677 0.229085
17850 7 0.368985 0.208944 0.216426
15026 6 0.445764 0.175991 0.209581
14952 3 0.482677 0.177999 0.229224
15030 7 0.434171 0.191444 0.221733
17816 9 0.384904 0.245209 0.222987
15027 6 0.423813 0.210099 0.195628
15262 9 0.468316 0.180641 0.225573
14919 6 0.435492 0.141837 0.227916
14921 7 0.417686 0.141959 0.191812
14958 7 0.420234 0.135435 0.227274
14915 3 0.482364 0.170097 0.19176
15031 7 0.415201 0.197013 0.229843
15275 9 0.4887 0.154802 0.191705
17575 3 0.383889 0.23471 0.229363
17572 4 0.386759 0.149197 0.242785
17637 7 0.378802 0.229568 0.122261
17596 6 0.390161 0.231801 0.127979
22670 7 0.164099 0.00413131 0.129515
20167 7 0.229383 0.244469 0.194655
15011 7 0.472207 0.243457 0.113333
22830 7 0.116444 0.248058 0.210933
22791 6 0.127442 0.245897 0.205006
15029 7 0.384229 0.248903 0.201271
20195 5 0.276036 0.24875 0.238082
17650 5 0.363249 0.240892 0.247162
25178 3 0.0254521 0.0174444 0.294594
25183 7 0.0709046 0.0337801 0.308071
25184 7 0.0566114 0.0154031 0.305468
25218 6 0.0728081 0.0179289 0.307855
25245 3 0.0394877 0.0879208 0.299419
25256 7 0.101547 0.0732212 0.299491
25257 7 0.0766331 0.0691337 0.297212
25288 6 0.0908767 0.0604934 0.29847
25497 9 0.0248611 0.0919453 0.302777
25306 5 0.0553685 0.0464897 0.252331
25302 5 0.0930305 0.116287 0.256246
25294 1 0.0208657 0.0762867 0.249089
22624 5 0.113602 0.0248618 0.280662
25251 5 0.0152012 0.0283216 0.274266
25248 5 0.0573918 0.0878533 0.280642
25247 5 0.0131902 0.0926898 0.283647
25246 4 0.0337818 0.0550117 0.286274
25243 2 0.035707 0.0809719 0.286888
25241 1 0.0860638 0.118892 0.278365
25232 5 0.0974935 0.0506414 0.254686
25224 1 0.0894449 0.0541588 0.278057
22699 5 0.112804 0.0803453 0.277912
25179 5 0.0568133 0.0215419 0.279506
25173 2 0.033067 0.029261 0.283697
25171 1 0.0273976 0.0171407 0.254002
25301 5 0.048259 0.107767 0.253452
25496 9 0.0240669 0.00138448 0.293522
22943 9 0.12533 0.0336491 0.301305
19999 4 0.225241 0.00806521 0.288906
20070 3 0.235019 0.0869819 0.295491
20391 9 0.233884 0.0765936 0.301719
22622 3 0.139841 0.0317377 0.297348
22626 3 0.141572 0.0812731 0.294091
22631 7 0.197304 0.0727094 0.313982
22632 7 0.180927 0.0724149 0.304694
22633 7 0.182337 0.0320238 0.312731
22666 6 0.18995 0.0623907 0.309045
22944 9 0.143443 0.0644967 0.295333
19993 2 0.232157 0.0247536 0.280114
20068 2 0.235506 0.0754021 0.284102
20071 4 0.236688 0.0487663 0.285011
20072 5 0.215745 0.0833819 0.276805
20076 5 0.211078 0.0268831 0.273023
20119 1 0.228565 0.0876372 0.252926
22618 1 0.181709 0.0493871 0.272036
22619 1 0.128363 0.0857263 0.253991
22620 2 0.135347 0.0170071 0.286781
22621 2 0.136486 0.0876637 0.281856
22625 5 0.154951 0.0227935 0.2785
22627 5 0.153098 0.0771399 0.273697
22671 1 0.127946 0.0229362 0.257844
22672 1 0.188869 0.110932 0.275012
22680 5 0.1972 0.11462 0.252202
22694 4 0.137376 0.113972 0.280077
22754 5 0.154179 0.118241 0.251359
22736 6 0.181705 0.106622 0.295801
22705 7 0.165508 0.102142 0.295832
22677 5 0.155693 0.0572863 0.250344
19990 1 0.230822 0.0236487 0.250595
22704 7 0.182913 0.117778 0.301787
17440 8 0.317674 0.0489731 0.297374
17442 5 0.329363 0.0255411 0.290422
17446 3 0.286452 0.046504 0.293271
17447 4 0.328818 0.0711477 0.289502
17453 7 0.353668 0.0826633 0.305889
17488 6 0.36958 0.0814775 0.30691
17857 9 0.272713 0.0552571 0.295601
20004 7 0.301512 -0.00264847 0.288966
20005 7 0.285749 0.0125557 0.294882
20082 7 0.261423 0.105247 0.29575
20113 6 0.275287 0.112382 0.293359
17438 1 0.331909 0.0866182 0.25128
17439 2 0.333005 0.0109183 0.280518
17441 2 0.332324 0.088193 0.280166
17444 5 0.31217 0.0173678 0.273989
17445 5 0.352204 0.0212844 0.273409
17448 5 0.355578 0.0854804 0.274714
17495 1 0.326227 0.021455 0.251568
17519 4 0.330798 0.113585 0.284051
17524 5 0.313852 0.0830771 0.271439
20000 5 0.251993 0.016833 0.272867
20048 1 0.286022 0.0486046 0.272147
20066 1 0.282503 0.112777 0.273314
20073 5 0.256791 0.0817844 0.277381
20125 5 0.259012 0.121621 0.251837
20126 5 0.301139 0.12274 0.251108
20129 5 0.258731 0.0539768 0.250808
15305 9 0.379589 0.13296 0.294277
17513 6 0.32067 0.0520168 0.313147
24877 7 -0.0029435 0.138918 0.495413
17452 7 0.375943 0.0905057 0.301407
17455 7 0.419236 0.0366404 0.316618
14822 3 0.425958 0.00883017 0.294307
14827 7 0.479694 0.0549614 0.302077
14828 7 0.466514 0.0360666 0.296911
14860 6 0.481196 0.0432034 0.296544
14888 8 0.418783 0.113908 0.296668
14890 5 0.426929 0.0898614 0.289122
14894 3 0.387451 0.117298 0.29321
14902 7 0.476183 0.0885482 0.309222
14903 7 0.451386 0.0840921 0.308931
14935 6 0.46488 0.0782867 0.312233
17454 7 0.410833 0.0230504 0.30644
14815 1 0.431104 0.0158934 0.253463
14817 2 0.431593 0.019828 0.283044
14823 5 0.452191 0.0128872 0.276256
14866 1 0.48389 0.0481275 0.275028
14885 1 0.47764 0.111943 0.270462
14887 2 0.432451 0.0717938 0.280781
14891 4 0.437172 0.0463988 0.284812
14892 5 0.410264 0.0717329 0.274059
14893 5 0.452011 0.0798114 0.273392
14897 5 0.411191 0.0146282 0.27554
14943 1 0.425065 0.0811108 0.253044
14954 5 0.457541 0.0458228 0.253587
17437 1 0.378797 0.0479548 0.271354
17496 1 0.385537 0.11198 0.272467
17505 5 0.398714 0.11183 0.250456
14961 6 0.429085 0.109975 0.311754
25255 7 0.0736146 0.116529 0.305977
25289 6 0.0860782 0.118168 0.300618
25313 6 0.00855821 0.122413 0.308234
25504 7 0.0249954 0.129168 0.305438
22963 7 0.114161 0.197358 0.300525
25249 3 0.0376082 0.143611 0.291512
25254 7 0.0986681 0.119161 0.306012
25319 3 0.0256878 0.220023 0.289752
25330 7 0.0693139 0.190036 0.304551
25331 7 0.0584788 0.170929 0.298027
25360 6 0.0726215 0.178937 0.298969
25498 9 0.0511663 0.133919 0.293055
25499 9 0.0187878 0.235046 0.287735
25373 5 0.0952082 0.248136 0.250762
25325 5 0.0225859 0.147874 0.271272
25322 5 0.0614213 0.218032 0.278384
25321 5 0.0183885 0.211602 0.270807
25320 4 0.0383888 0.182678 0.281474
25317 2 0.0370091 0.208763 0.279726
25315 1 0.0814509 0.244801 0.272988
25305 5 0.0911219 0.180948 0.258983
25295 1 0.0917334 0.181161 0.279863
25250 5 0.0633091 0.146575 0.276355
25244 2 0.0405511 0.156418 0.279915
22695 5 0.12201 0.152836 0.280306
22773 5 0.111208 0.209149 0.27955
22761 6 0.120274 0.180253 0.303513
24688 6 0.0486728 0.203366 0.31488
22952 7 0.137976 0.182492 0.301169
22742 1 0.121408 0.146636 0.257772
1998 7 0.00569573 0.151066 0.291438
25242 1 0.0271395 0.146467 0.251938
25376 5 0.0489047 0.186577 0.252008
20392 9 0.227215 0.144941 0.300291
20074 3 0.240091 0.146646 0.295369
20141 3 0.240324 0.207224 0.295641
20209 6 0.214387 0.242927 0.304908
20393 9 0.229918 0.200697 0.300697
22693 3 0.140993 0.136685 0.297476
22697 3 0.135921 0.220572 0.295917
22702 7 0.194406 0.213003 0.296072
22703 7 0.183275 0.199316 0.304767
22737 6 0.184383 0.199824 0.296346
22945 9 0.130764 0.14809 0.301022
22946 9 0.150047 0.213462 0.298316
20067 1 0.228795 0.15022 0.255477
20069 2 0.233035 0.150972 0.283415
20139 2 0.23474 0.202889 0.283293
20142 4 0.233482 0.177969 0.280922
20143 5 0.214086 0.214947 0.278298
20147 5 0.211401 0.14264 0.277695
20190 1 0.225276 0.210857 0.254878
22689 1 0.180382 0.180716 0.277395
22690 1 0.127567 0.211487 0.255592
22691 2 0.141533 0.138396 0.28477
22692 2 0.132803 0.221394 0.283154
22696 5 0.162533 0.151348 0.280892
22698 5 0.151534 0.209637 0.276718
22743 1 0.185234 0.242791 0.275303
22749 5 0.153391 0.178593 0.255066
22750 5 0.196433 0.183045 0.255203
22753 5 0.200291 0.242546 0.251129
22768 4 0.131594 0.246067 0.278881
22824 5 0.157542 0.239687 0.252541
20400 7 0.228172 0.23622 0.299821
20081 7 0.271094 0.128531 0.294694
17518 3 0.337532 0.15275 0.292794
17522 3 0.339164 0.199152 0.290802
17528 7 0.377818 0.248646 0.293785
17839 9 0.323528 0.158969 0.295743
17840 9 0.344215 0.183395 0.289499
20079 7 0.289612 0.180207 0.30101
20080 7 0.26978 0.16506 0.296845
20114 6 0.285995 0.167891 0.295963
20152 7 0.317276 0.20414 0.303421
20153 7 0.295007 0.218186 0.305836
20184 6 0.303889 0.204712 0.308498
16873 7 0.325211 -0.000400165 0.403444
17516 2 0.333359 0.139853 0.28189
17517 2 0.334526 0.210774 0.27948
17520 5 0.311822 0.148947 0.275774
17521 5 0.352 0.144564 0.273333
17523 5 0.349989 0.202198 0.270209
17567 1 0.326438 0.14939 0.251713
17590 4 0.334422 0.236924 0.279861
17595 5 0.309955 0.205601 0.275915
14242 7 0.415492 0.00465254 0.409271
20075 5 0.252142 0.140618 0.275522
20120 1 0.283101 0.176346 0.274818
20128 5 0.301359 0.175428 0.251156
20137 1 0.280074 0.240956 0.27677
20144 5 0.253004 0.214533 0.27626
20197 5 0.258777 0.242048 0.255179
20198 5 0.299956 0.242236 0.255497
20202 5 0.259604 0.176447 0.254117
24554 5 0.0664664 0.00177656 0.382426
20185 6 0.289617 0.242145 0.297287
20150 7 0.306525 0.247674 0.297046
14936 6 0.484379 0.1213 0.301925
17530 7 0.374911 0.170553 0.295733
17561 6 0.384499 0.174523 0.289517
17562 6 0.384062 0.233341 0.292312
12342 3 0.483358 0.168971 0.288383
12753 9 0.467688 0.174428 0.29147
14895 4 0.426484 0.137242 0.288205
14900 7 0.4789 0.132753 0.306846
14901 7 0.49739 0.128607 0.298251
14966 3 0.428781 0.211907 0.290828
14977 7 0.48035 0.216471 0.302049
14978 7 0.455416 0.207301 0.300392
15009 6 0.471098 0.203007 0.302353
15287 9 0.412986 0.217189 0.292371
17529 7 0.397703 0.1805 0.293536
14889 2 0.432634 0.152371 0.278718
14896 5 0.45426 0.142555 0.273267
14944 1 0.483875 0.175256 0.269011
14962 1 0.478331 0.239839 0.269787
14964 2 0.430354 0.204539 0.278484
14967 4 0.43593 0.178778 0.279206
14968 5 0.409689 0.21004 0.271252
14969 5 0.45022 0.21568 0.272049
14972 5 0.412476 0.149155 0.270612
15015 1 0.432062 0.210797 0.250042
17514 1 0.379874 0.171678 0.26757
17568 1 0.381485 0.238702 0.269683
14315 5 0.499741 0.175765 0.436297
22280 9 0.177721 -0.00579367 0.413585
14886 1 0.43559 0.144859 0.249947
22022 5 0.10906 0.0224008 0.343383
22097 5 0.110917 0.0805854 0.34204
24550 1 0.0869112 0.0483354 0.342339
24553 2 0.0750412 0.0585441 0.369844
24560 5 0.0975934 0.0486282 0.365224
24569 1 0.0281784 0.0149814 0.364163
24571 2 0.0296457 0.0243906 0.333792
24576 3 0.0257568 0.00990507 0.322643
24577 5 0.0534005 0.0187257 0.338234
24582 7 0.080905 -0.00376109 0.318947
24614 6 0.0806358 0.0596303 0.32258
24620 1 0.023352 0.0813432 0.366764
24626 5 0.0531904 0.120372 0.370159
24627 5 0.0955357 0.121959 0.365945
24630 5 0.0560816 0.0443278 0.364709
24637 1 0.0800167 0.110794 0.343331
24639 2 0.0310377 0.0761757 0.336566
24640 8 0.00571511 0.117415 0.323843
24642 5 0.023226 0.0949802 0.328667
24643 4 0.0297606 0.0511221 0.332676
24644 5 0.0163318 0.0767259 0.347335
24645 5 0.0553748 0.0817292 0.339529
24649 5 0.0132776 0.0157292 0.342588
24654 7 0.0807162 0.0640744 0.31484
24655 7 0.0639947 0.0613368 0.324517
24820 9 0.0108457 0.0131606 0.319974
24625 4 0.0758431 0.0851103 0.366439
22268 9 0.117459 0.0730231 0.320302
24615 6 0.0690926 0.124359 0.323736
24622 2 0.0760863 0.109598 0.372028
22634 7 0.160519 0.0190407 0.316977
22665 6 0.176811 0.0174076 0.315403
16853 7 0.391833 0.00635012 0.319799
19391 1 0.23492 0.0196575 0.368391
19393 2 0.23563 0.0229493 0.340038
19445 1 0.227608 0.0787083 0.362505
19466 2 0.230237 0.0730447 0.334077
19468 3 0.228749 0.0827471 0.322209
19469 4 0.227608 0.0460735 0.334459
19470 5 0.211417 0.0818272 0.341311
19474 5 0.213456 0.0143401 0.345756