ITEM: TIMESTEP
813000
ITEM: NUMBER OF ATOMS
25520
ITEM: BOX BOUNDS pp pp pp
-3.9065068256748997e-01 6.0089194272567596e+01
-1.9463077518128182e+00 5.9116593025811561e+01
-1.2647908449267039e+01 1.1192364085527973e+02
ITEM: ATOMS id type xs ys zs
25182 6 0.102652 0.0160242 0.153527
25252 6 0.111016 0.0807768 0.153425
25214 3 0.0434973 0.0427147 0.159069
25287 5 0.0298724 0.0508883 0.176669
25283 5 0.0688283 0.117594 0.170643
25282 5 0.0284654 0.113422 0.177644
25281 4 0.0426753 0.0845862 0.165248
25277 2 0.0452438 0.109218 0.168396
25215 5 0.0700855 0.0557106 0.172513
25209 2 0.046609 0.0588916 0.168261
25188 1 0.098752 0.0844987 0.173473
25458 9 0.0522083 0.0464933 0.152947
25206 1 0.0965063 0.0215935 0.173758
25293 7 0.121659 0.0689449 0.154184
25457 9 0.0420199 0.0116731 0.158802
17474 7 0.330706 0.00196809 0.221399
25292 7 0.118476 0.0950306 0.152822
15031 7 0.421894 0.226644 0.246359
25363 7 0.0114888 0.0811216 0.155292
25220 7 0.0929952 0.00667461 0.14943
22660 5 0.129897 0.0561508 0.174964
22735 5 0.128971 0.11942 0.17784
22905 9 0.143168 0.0338986 0.152252
22662 3 0.143443 0.112332 0.157776
22658 3 0.144875 0.0484879 0.156209
22656 2 0.148732 0.0457032 0.168271
20112 5 0.22826 0.0542811 0.174818
22663 5 0.169535 0.120209 0.171548
22654 1 0.193582 0.0858189 0.172215
22661 5 0.170699 0.0551317 0.171262
22659 4 0.147458 0.0211343 0.169781
22563 1 0.200643 0.0221117 0.174824
22629 6 0.207574 0.0159431 0.154309
22630 6 0.187779 0.0840604 0.151667
22667 7 0.196473 0.0886697 0.144941
22668 7 0.179467 0.072819 0.148366
20108 5 0.229171 0.118339 0.173261
22518 7 0.231971 0.10339 0.135278
22482 6 0.230751 0.089827 0.138834
22517 7 0.234577 0.0941235 0.145976
22670 7 0.212978 0.0289686 0.15123
22669 7 0.221427 0.00778608 0.154982
20352 9 0.233348 0.0588768 0.151963
20036 3 0.24157 0.0491234 0.156239
20106 3 0.242261 0.122041 0.155868
22906 9 0.157388 0.10987 0.155475
20104 2 0.248671 0.110567 0.166415
20031 2 0.247354 0.0603635 0.167235
20107 4 0.24685 0.085326 0.165367
20118 7 0.314063 0.0678382 0.155272
20117 7 0.320965 0.0925567 0.152207
20077 6 0.308103 0.0826267 0.153905
17480 3 0.346836 0.0540602 0.155764
17799 9 0.3423 0.0419752 0.151655
17478 2 0.350157 0.0472911 0.167628
20109 5 0.270395 0.118937 0.170634
17482 5 0.331015 0.0552345 0.17456
20037 5 0.270415 0.0544511 0.170634
20011 1 0.299867 0.086309 0.173352
20028 1 0.295882 0.0224769 0.173011
17481 4 0.35172 0.0223592 0.168335
17484 3 0.344901 0.112488 0.154261
20003 6 0.292128 0.0333837 0.153135
17485 5 0.369555 0.119921 0.170716
20042 7 0.288966 0.0324655 0.145646
20041 7 0.280992 0.0447418 0.154789
17483 5 0.373145 0.0565638 0.171729
17560 5 0.329241 0.116852 0.173569
17800 9 0.352036 0.0982915 0.154848
17479 2 0.34739 0.124148 0.165763
17489 7 0.381265 0.0746562 0.155216
22918 9 0.144475 0.0260774 0.246466
25219 7 0.11766 0.0114645 0.152389
17490 7 0.381962 0.0944736 0.149209
17451 6 0.391744 0.0866027 0.153718
14856 3 0.446211 0.0465323 0.159288
15246 9 0.44565 0.0564059 0.153081
14929 4 0.449138 0.0854974 0.167969
14926 2 0.449396 0.110875 0.169016
14851 2 0.450073 0.0609117 0.169572
14931 5 0.472628 0.113755 0.173285
14857 5 0.473263 0.0559231 0.174096
17476 1 0.394799 0.0869094 0.174465
14934 5 0.429613 0.0567253 0.177205
14930 5 0.430693 0.117288 0.17653
17384 1 0.403548 0.0220631 0.175882
17450 6 0.413081 0.0187736 0.156057
17492 7 0.421231 0.0325591 0.155435
17491 7 0.425624 0.00784737 0.155888
14848 1 0.498067 0.0232317 0.176504
14928 3 0.446969 0.120981 0.157596
14862 7 0.489443 0.0257987 0.151522
25280 5 0.0383226 0.126622 0.160047
25291 7 0.0956409 0.151828 0.147094
25290 7 0.112803 0.165031 0.152276
2033 7 0.047651 0.141065 0.135682
25253 6 0.099376 0.157677 0.15436
2032 7 0.0478751 0.16921 0.137339
1995 6 0.038173 0.154322 0.138689
25275 1 0.0937076 0.148817 0.174607
25278 8 0.0301708 0.151566 0.153774
22957 9 0.0872838 0.214045 0.14986
22732 3 0.0994676 0.214947 0.155961
25285 4 0.0411149 0.172989 0.162161
25359 5 0.0316779 0.182573 0.18049
25356 5 0.0703517 0.245906 0.17485
25354 4 0.0436852 0.212934 0.168133
25351 2 0.0487568 0.2393 0.169484
25286 5 0.0705943 0.182161 0.173566
25279 2 0.0470043 0.188751 0.170965
25259 1 0.10047 0.213147 0.176029
25355 5 0.0308156 0.246899 0.176682
25394 6 0.0484278 0.212153 0.144019
25432 7 0.0492419 0.224728 0.149178
25433 7 0.0476199 0.199876 0.148457
20368 9 0.248186 0.194801 0.248635
20127 3 0.260925 0.204477 0.249944
15245 9 0.46124 0.00404215 0.155984
25284 3 0.000571865 0.147856 0.15726
12352 7 0.487807 0.165898 0.242966
2103 7 0.00974005 0.216504 0.153871
20353 9 0.246628 0.137341 0.155655
1963 7 0.142506 0.225604 0.134649
1962 7 0.150578 0.200237 0.136546
22657 2 0.146099 0.125439 0.169156
22726 8 0.129326 0.21395 0.15356
22730 5 0.130008 0.176736 0.179389
1927 6 0.137635 0.210549 0.138376
22740 7 0.213424 0.156986 0.151132
22741 7 0.213109 0.130564 0.150936
22700 6 0.204172 0.144669 0.153187
22636 1 0.200567 0.149259 0.17329
22729 4 0.145557 0.151164 0.166897
22733 4 0.139949 0.234694 0.162007
20189 7 0.193102 0.188103 0.149057
20148 6 0.187868 0.200325 0.153397
22728 5 0.137829 0.1907 0.161079
22725 2 0.146112 0.175885 0.169946
20178 5 0.231957 0.242882 0.177684
20183 5 0.231361 0.181584 0.174383
22723 1 0.196862 0.212757 0.173021
22731 5 0.171939 0.181661 0.170392
20188 7 0.17691 0.193219 0.158809
20173 2 0.2481 0.23743 0.168391
20177 4 0.245698 0.213057 0.164739
20110 3 0.242506 0.175057 0.154957
22734 5 0.17121 0.242676 0.173107
20354 9 0.245314 0.18454 0.149229
20105 2 0.248853 0.18714 0.165806
22807 5 0.131138 0.244686 0.180033
17555 4 0.343348 0.148841 0.163329
20102 1 0.295653 0.149329 0.171585
17554 3 0.341769 0.186194 0.154065
17801 9 0.342791 0.202376 0.155093
17558 3 0.337754 0.232726 0.157516
17552 2 0.345598 0.174746 0.165115
17556 5 0.326538 0.181591 0.172812
20111 5 0.272113 0.181473 0.168465
20084 1 0.300852 0.211346 0.173773
20179 5 0.2714 0.243059 0.170765
17631 5 0.33236 0.243164 0.176801
17559 5 0.371514 0.239096 0.170526
17557 5 0.368159 0.180792 0.169312
17802 9 0.338697 0.241425 0.15107
17553 2 0.348015 0.247756 0.167208
15247 9 0.452796 0.135506 0.157473
17565 7 0.416703 0.135358 0.151048
17566 7 0.390772 0.132887 0.150074
17564 7 0.394592 0.182017 0.146714
17563 7 0.381759 0.184448 0.157063
14938 7 0.461614 0.199773 0.147643
14937 7 0.483918 0.21031 0.144748
17525 6 0.402625 0.14248 0.152527
17459 1 0.398428 0.148086 0.172887
17526 6 0.392536 0.19219 0.152253
14899 6 0.468388 0.210781 0.143221
15248 9 0.433934 0.169487 0.155026
15002 3 0.450922 0.241234 0.156311
14932 3 0.449395 0.170486 0.158049
15000 2 0.449946 0.232438 0.167887
15003 4 0.44663 0.206996 0.166558
14927 2 0.448229 0.182354 0.169076
15005 5 0.471586 0.239683 0.172239
14933 5 0.470634 0.177149 0.174009
15004 5 0.430984 0.242964 0.174124
17550 1 0.39535 0.209352 0.171832
15008 5 0.426743 0.174581 0.174652
15249 9 0.460174 0.231706 0.151461
14940 7 0.482469 0.157968 0.155265
14924 1 0.498722 0.147651 0.175803
14898 6 0.495113 0.147623 0.156152
25236 7 0.0381734 0.0586168 0.247552
25471 9 0.0652416 0.00831591 0.245909
25198 5 0.0947239 0.0860602 0.19355
25195 5 0.0932886 0.0209953 0.193022
25268 5 0.0523219 0.0820269 0.19635
25258 1 0.0235164 0.118689 0.196699
25207 1 0.0252809 0.0549557 0.196934
25191 2 0.0739515 0.0910604 0.200341
25263 4 0.0723146 0.115631 0.202992
25197 4 0.0744595 0.0777314 0.210688
25192 5 0.0728705 0.0326961 0.210148
25196 3 0.0346825 0.0506172 0.21458
25190 8 0.064184 0.0546325 0.218258
25510 9 0.0223457 0.0435194 0.218733
25517 7 0.063676 0.0460014 0.238602
25240 6 0.0748437 0.0536648 0.232961
22685 7 0.0835618 0.101406 0.219226
25506 7 0.0773038 0.0706571 0.236041
25194 5 0.0508065 0.0125763 0.197179
25189 2 0.0748531 0.0161462 0.201402
25308 6 0.0239412 0.115338 0.21799
25272 7 0.033458 0.115008 0.224529
25201 6 0.0254514 0.0487393 0.247792
25309 7 0.0320197 0.119167 0.242455
25271 7 0.00984038 0.106775 0.219567
22649 6 0.086158 0.10915 0.226208
22684 7 0.0717602 0.109816 0.230189
25472 9 0.0566544 0.0948788 0.244968
22612 6 0.116133 0.0265011 0.233318
22577 7 0.102503 0.0336117 0.232295
22760 7 0.101708 0.115918 0.241074
25270 6 0.046134 0.119233 0.237989
22687 7 0.105602 0.0594847 0.245236
22635 1 0.121229 0.0553968 0.195104
25205 7 0.010575 0.00297158 0.218629
22717 6 0.108894 0.117261 0.247726
22958 9 0.124329 0.113431 0.22253
20009 7 0.206986 0.00361129 0.242829
22651 7 0.122215 0.056411 0.222646
22652 7 0.124899 0.0124791 0.222027
22576 7 0.126621 0.03873 0.23505
22683 6 0.128581 0.0618402 0.215818
20045 7 0.218559 0.00200059 0.221761
25343 6 0.00283486 0.239867 0.243481
12353 7 0.484178 0.191133 0.244169
15261 9 0.454615 0.157047 0.245556
20097 6 0.212339 0.116915 0.249258
20132 7 0.22653 0.125011 0.248029
20008 7 0.183302 0.0086299 0.24683
22650 7 0.144712 0.0618965 0.216788
22655 1 0.127489 0.116919 0.197019
20062 7 0.142911 0.0619282 0.245646
22931 9 0.188181 0.00947861 0.214856
22643 5 0.193964 0.0888227 0.192835
20023 6 0.13937 0.0658044 0.238676
20061 7 0.154085 0.0615644 0.235402
22572 5 0.192827 0.021971 0.195946
20083 1 0.223108 0.11801 0.194189
20029 1 0.22656 0.056457 0.195617
22642 5 0.1524 0.0850242 0.195906
20063 7 0.17809 0.0484081 0.224076
22637 2 0.175412 0.0802276 0.200109
22641 4 0.177759 0.0566805 0.204443
22565 2 0.174752 0.0310153 0.203715
22640 5 0.173215 0.0934575 0.210024
20060 6 0.233658 0.0539395 0.216085
20022 6 0.182014 0.0612989 0.228428
20064 7 0.17928 0.0727784 0.222859
22647 5 0.151342 0.0260641 0.200078
22571 3 0.17773 0.020869 0.215406
22638 8 0.166855 0.114651 0.218634
20024 7 0.244595 0.0642666 0.214083
17471 6 0.224867 0.0192869 0.234336
22954 7 0.175872 0.0956131 0.236949
17510 7 0.221447 0.0341537 0.232534
22919 9 0.157418 0.08575 0.247579
17509 7 0.237743 0.0199667 0.238909
20130 6 0.251493 0.0913206 0.231426
20101 7 0.242578 0.102581 0.228926
20100 7 0.241518 0.0784306 0.230266
22653 7 0.144637 0.0108863 0.213283
20135 7 0.192954 0.0615234 0.242759
20134 7 0.20624 0.0412516 0.244822
22688 6 0.177912 0.111197 0.233086
22644 3 0.135781 0.114849 0.216466
20025 7 0.241834 0.0396302 0.216608
22682 6 0.129989 0.00345346 0.215664
22965 7 0.169501 0.120474 0.239179
20133 7 0.206235 0.112035 0.242805
20096 6 0.204072 0.0563896 0.247607
12291 6 0.442081 0.157867 0.231919
14915 3 0.477894 0.204558 0.214225
17548 7 0.274472 0.115331 0.230927
17507 6 0.318556 -2.98669e-05 0.216534
17475 7 0.304881 0.00449183 0.220215
20366 9 0.255175 0.085625 0.246908
20016 5 0.251584 0.0259801 0.198305
20095 5 0.251626 0.0858839 0.198465
17456 7 0.307535 0.0636654 0.239584
20020 5 0.291844 0.083527 0.193532
20017 5 0.290832 0.024199 0.193692
17477 1 0.327354 0.117099 0.193211
17458 1 0.321539 0.0530276 0.193897
17464 5 0.350655 0.0876443 0.195863
20013 2 0.27526 0.0901648 0.201936
20379 9 0.268406 0.0854498 0.218345
20089 4 0.278901 0.115519 0.204682
20019 3 0.27825 0.0771735 0.212562
20378 9 0.273423 0.0440525 0.213462
17466 6 0.317911 0.0548676 0.21446
17493 7 0.308763 0.0672835 0.215484
17494 7 0.307018 0.0424225 0.215931
14960 7 0.325062 0.0804755 0.226866
14918 6 0.328538 0.0945299 0.230648
14959 7 0.344604 0.0951071 0.23149
17469 5 0.352329 0.0236442 0.19949
20014 3 0.276575 0.0288225 0.213833
20012 2 0.273374 0.0178395 0.202377
17503 6 0.298486 0.0546045 0.244325
17457 7 0.284078 0.0599779 0.242456
17499 3 0.357565 0.0908615 0.247079
14846 7 0.366163 0.0572148 0.233919
17813 9 0.342888 0.0948712 0.245037
17512 7 0.272402 0.00432997 0.224948
20051 3 0.25481 0.0322643 0.249589
17472 7 0.327377 0.115054 0.21949
14939 7 0.490768 0.134983 0.151522
17582 7 0.322261 0.113149 0.241989
17544 6 0.3102 0.117516 0.246593
17583 7 0.298248 0.123372 0.241455
17826 9 0.3779 0.106163 0.21238
17386 2 0.375001 0.0307028 0.20341
17460 2 0.372237 0.0805517 0.200756
17825 9 0.376828 0.0366995 0.219988
14847 7 0.376795 0.0696295 0.22538
17463 4 0.376131 0.0556398 0.201242
17462 3 0.376632 0.0899203 0.212206
14878 6 0.379597 0.0560405 0.229799
14843 6 0.403352 0.00257928 0.246441
17391 3 0.379103 0.0244241 0.214826
14845 7 0.406904 0.00522993 0.215609
15272 9 0.472786 0.0106314 0.219974
14840 5 0.492003 0.0879023 0.19655
17465 5 0.392654 0.0872939 0.194147
14906 1 0.42342 0.117878 0.195768
17392 5 0.394043 0.0219471 0.196344
14849 1 0.425746 0.0568259 0.197773
14917 5 0.451718 0.088378 0.199925
14837 5 0.453045 0.0269863 0.198939
14911 4 0.47343 0.120942 0.204314
14834 2 0.474135 0.0952995 0.204114
14839 3 0.479757 0.0917618 0.216305
14955 6 0.42276 0.0662977 0.217458
15273 9 0.473451 0.104782 0.220277
14922 7 0.436427 0.0629739 0.221026
14923 7 0.411118 0.0620646 0.222759
15308 7 0.471832 0.0699815 0.229818
14884 6 0.460485 0.0563488 0.231279
15297 7 0.46955 0.0423916 0.227675
15303 9 0.405789 0.0542051 0.241479
14868 8 0.446934 0.0554261 0.245083
14835 3 0.476728 0.0237145 0.216372
14833 2 0.474055 0.0195678 0.203601
14838 5 0.495361 0.027664 0.197861
12366 6 0.4725 0.118774 0.233331
14914 6 0.424 0.116354 0.216131
14941 7 0.429583 0.101655 0.218347
12408 7 0.46726 0.121613 0.24078
14874 3 0.417705 0.0566534 0.247849
14951 6 0.398519 0.112933 0.245138
14905 7 0.390284 0.0989566 0.244274
14880 7 0.411053 0.00723487 0.239912
14942 7 0.408616 0.11412 0.218072
14881 7 0.387486 0.00512852 0.244788
25382 7 0.00933162 0.244321 0.236611
22960 9 0.104227 0.246773 0.239974
22791 6 0.067836 0.24214 0.232873
22829 7 0.06392 0.232541 0.238339
25345 7 0.0044348 0.232532 0.219783
25310 7 0.0537945 0.130979 0.242089
25347 7 0.0144129 0.154032 0.220044
25348 7 0.036776 0.156819 0.21467
22830 7 0.0545603 0.241737 0.228803
22718 6 0.107672 0.182889 0.245871
25484 9 0.086277 0.133015 0.218772
25267 5 0.0944017 0.208957 0.195624
25265 5 0.09117 0.147759 0.193879
25303 3 0.019065 0.179145 0.246461
25260 2 0.0763173 0.141148 0.203122
25264 5 0.0531222 0.150003 0.201632
25332 1 0.0232578 0.243963 0.197874
25276 1 0.0282568 0.181535 0.199473
25342 5 0.0530851 0.211936 0.200691
25337 4 0.0805491 0.241726 0.203587
25261 2 0.0769311 0.2169 0.20316
25266 3 0.0843237 0.207147 0.214378
25262 3 0.0868726 0.146832 0.213706
25485 9 0.0985005 0.199693 0.213343
22720 7 0.108004 0.168332 0.217761
25377 6 0.0256853 0.165335 0.218364
25507 7 0.0684959 0.196658 0.227795
25518 7 0.0621079 0.169391 0.224755
25314 6 0.0666479 0.178959 0.231301
25297 8 0.0502199 0.179033 0.24439
22751 3 0.115996 0.241263 0.245216
22758 7 0.122396 0.182108 0.24237
22757 7 0.0962798 0.187861 0.240016
22756 6 0.121081 0.177565 0.216116
25378 6 0.0158311 0.244177 0.219223
22796 7 0.106609 0.228355 0.218138
22825 6 0.119978 0.237644 0.217962
25512 9 0.00703261 0.178986 0.240005
22706 1 0.124942 0.176725 0.195819
22759 7 0.124507 0.114292 0.245504
17539 5 0.39355 0.205647 0.191141
20131 6 0.220364 0.128332 0.213953
22795 7 0.130144 0.228798 0.222879
20098 7 0.232838 0.137746 0.214344
20208 7 0.212245 0.244255 0.239535
22719 7 0.128618 0.179447 0.223326
20099 7 0.208392 0.138367 0.211793
22724 1 0.12908 0.243128 0.198348
20169 7 0.227411 0.172014 0.246665
22646 5 0.194487 0.147979 0.193385
22713 5 0.195268 0.20924 0.194333
20103 1 0.228931 0.178617 0.193654
22716 5 0.154434 0.153233 0.197241
20154 1 0.224509 0.240229 0.19477
22722 7 0.151038 0.169219 0.241783
22645 4 0.177515 0.138979 0.211117
22712 5 0.153807 0.213375 0.199678
22639 2 0.177249 0.154644 0.201743
22708 2 0.176586 0.204444 0.202894
22711 4 0.177224 0.178914 0.205335
22710 3 0.183885 0.214715 0.213622
22932 9 0.189044 0.203554 0.218679
20204 6 0.221175 0.239873 0.216546
20092 3 0.232651 0.177904 0.213108
22721 7 0.150155 0.194382 0.241493
20406 9 0.22066 0.188703 0.216532
22745 8 0.146679 0.240318 0.244027
20166 6 0.191512 0.184005 0.227499
20206 7 0.176321 0.185222 0.230599
22755 6 0.148911 0.181534 0.236668
20205 7 0.188702 0.174138 0.221572
22762 6 0.159453 0.239567 0.230194
20203 6 0.214315 0.181312 0.247676
20170 7 0.20444 0.17871 0.241451
20168 7 0.209573 0.230697 0.21927
20167 7 0.231084 0.241414 0.222459
22955 7 0.170778 0.227264 0.227886
20165 6 0.207649 0.238954 0.246322
20207 7 0.221358 0.234999 0.249544
17578 6 0.277049 0.130824 0.231235
17549 7 0.277746 0.13468 0.22331
17508 6 0.326239 0.125776 0.213673
20123 3 0.252298 0.148847 0.247242
17545 6 0.307635 0.249038 0.246962
17618 7 0.290118 0.237534 0.219884
20090 5 0.252893 0.142401 0.194938
17504 3 0.365029 0.146708 0.248078
17473 7 0.340087 0.133595 0.214075
17581 7 0.3047 0.244708 0.239587
20164 5 0.252534 0.215639 0.195299
17571 3 0.3584 0.2186 0.247876
20367 9 0.263393 0.139917 0.243345
17651 6 0.292791 0.228611 0.226376
17617 7 0.286708 0.213104 0.225758
20091 5 0.293592 0.147294 0.191754
20094 5 0.293361 0.211686 0.193281
17531 1 0.321635 0.179714 0.193838
17551 1 0.327299 0.239548 0.196348
17538 5 0.353373 0.206292 0.196042
17543 5 0.35211 0.147497 0.194673
20085 2 0.276297 0.140225 0.199807
20086 8 0.262056 0.178478 0.217089
20087 2 0.274701 0.216961 0.201083
20159 4 0.274856 0.241179 0.205576
20088 5 0.274481 0.156662 0.208912
20093 4 0.273053 0.200735 0.210076
17547 7 0.31347 0.162216 0.217217
17540 3 0.334721 0.240594 0.214866
17579 6 0.318813 0.176815 0.214443
17546 7 0.311101 0.186846 0.218875
20136 6 0.274789 0.180595 0.231342
20413 7 0.269408 0.190775 0.237678
20402 7 0.278237 0.164264 0.235046
17534 8 0.365532 0.241393 0.215715
14996 7 0.3652 0.196712 0.232576
17814 9 0.368703 0.158524 0.242783
17815 9 0.357044 0.234079 0.248879
15026 6 0.372336 0.184818 0.228966
17536 5 0.374863 0.216205 0.209923
17827 9 0.370744 0.15436 0.217827
17533 2 0.376602 0.201319 0.200138
17461 2 0.373922 0.152056 0.201147
17467 3 0.371335 0.141582 0.213034
17854 9 0.324479 0.238645 0.221628
14912 5 0.452293 0.154226 0.198333
15262 9 0.45945 0.221798 0.241362
12329 7 0.437956 0.143025 0.230455
17468 5 0.39579 0.145187 0.19462
14910 3 0.474524 0.155522 0.214425
14952 3 0.46051 0.209757 0.247062
12407 7 0.468904 0.131941 0.228921
14985 4 0.477791 0.241853 0.203835
17537 4 0.374492 0.176763 0.202749
14997 7 0.373387 0.191541 0.221536
17850 7 0.373846 0.239603 0.23665
12399 6 0.4955 0.180258 0.24457
15275 9 0.475236 0.21471 0.220069
14916 5 0.493325 0.209257 0.195698
9777 7 0.446818 0.24271 0.227562
12328 7 0.451614 0.161134 0.226097
14908 2 0.473413 0.145905 0.202961
17584 6 0.37498 0.250095 0.229869
14957 7 0.420052 0.1787 0.239813
15030 7 0.39792 0.218121 0.245159
14919 6 0.405472 0.182196 0.242898
14909 2 0.475422 0.216364 0.203277
14921 7 0.440599 0.200046 0.216321
14992 6 0.40624 0.231719 0.245182
15274 9 0.478193 0.171064 0.214516
14913 5 0.490634 0.151146 0.19482
14904 7 0.388391 0.124222 0.242335
9739 6 0.462533 0.244724 0.228952
14925 1 0.428106 0.180142 0.196984
14991 5 0.450171 0.213894 0.199954
14979 1 0.420387 0.241119 0.193638
14958 7 0.394459 0.184063 0.236429
14956 6 0.426154 0.191011 0.216678
14920 7 0.425742 0.186325 0.224543
22614 7 0.117884 -0.00065012 0.243303
25202 7 0.0705845 0.00490619 0.226669
25237 7 0.0324429 0.0351453 0.250053
25178 3 0.0203485 0.0615425 0.308383
25245 3 0.0218919 0.114338 0.306785
25251 5 0.00708679 0.0529418 0.290006
25246 4 0.0260015 0.0878729 0.292854
25243 2 0.0283099 0.112764 0.294764
25224 1 0.0787927 0.0866985 0.290615
25179 5 0.0489266 0.0548438 0.292308
25173 2 0.0265986 0.0632291 0.295903
25170 1 0.073816 0.0234953 0.29127
25232 5 0.0733203 0.087598 0.270042
25230 5 0.0744091 0.0247676 0.270035
22671 1 0.102114 0.0554541 0.270526
25171 1 0.00922576 0.055973 0.266929
25229 5 0.0335494 0.0212319 0.264596
25306 5 0.0315614 0.0851985 0.265332
25226 2 0.0545277 0.0933439 0.262036
25225 2 0.0572211 0.0149413 0.262343
22619 1 0.107659 0.118907 0.268473
25300 4 0.0569338 0.117928 0.260325
25248 5 0.0511296 0.122496 0.293177
22699 5 0.110948 0.118256 0.287821
22624 5 0.109325 0.0588361 0.290995
25247 5 0.0100376 0.121658 0.287024
25496 9 0.0338349 0.0610746 0.312571
25184 7 0.0494812 0.0157356 0.311044
22626 3 0.122241 0.113904 0.307571
25288 6 0.0869846 0.083768 0.311117
25497 9 0.0129908 0.10168 0.309064
22944 9 0.113291 0.101553 0.305743
16836 7 0.319205 0.00822759 0.400302
25294 1 -9.26678e-05 0.117683 0.267458
25227 3 0.0623424 0.0218061 0.250551
22622 3 0.125051 0.0575924 0.309739
14623 9 0.496299 0.136955 0.427192
24833 9 0.108994 0.0128106 0.426739
22623 4 0.124068 0.0246334 0.297769
22620 2 0.128364 0.0500513 0.297886
22681 5 0.131633 0.0231419 0.266784
19999 4 0.22276 0.0486534 0.304496
19993 2 0.228907 0.064013 0.295877
20068 2 0.228604 0.113279 0.297152
20071 4 0.225475 0.088134 0.298985
22625 5 0.151859 0.0552353 0.294728
22627 5 0.150554 0.115131 0.291967
22618 1 0.175379 0.0873899 0.292141
20076 5 0.212833 0.0589898 0.287168
22600 1 0.18215 0.0254395 0.29048
22609 5 0.172375 0.0239959 0.269094
22678 5 0.173097 0.0861896 0.27269
19990 1 0.208075 0.0556336 0.267868
22677 5 0.132305 0.0915904 0.2683
20129 5 0.233098 0.0913636 0.267478
20053 5 0.231128 0.0240989 0.265129
22602 2 0.153472 0.0326214 0.26224
22673 2 0.154874 0.0825563 0.264343
22676 4 0.153427 0.0584676 0.261718
20119 1 0.203992 0.118362 0.269812
20072 5 0.210597 0.119996 0.288939
22675 3 0.161018 0.0954425 0.253739
19994 5 0.224236 0.00309034 0.302274
22608 3 0.157634 0.024112 0.250373
22633 7 0.157666 0.10299 0.309715
22665 6 0.166719 0.0899574 0.312454
22920 9 0.15923 0.124029 0.252028
22545 2 0.127477 0.000843132 0.295643
19998 3 0.185335 0.0234652 0.309203
20000 5 0.252559 0.0591312 0.292341
20073 5 0.253078 0.117741 0.293321
17427 4 0.352814 0.013265 0.250664
20049 2 0.253551 0.0204158 0.260811
20124 4 0.259842 0.119649 0.260734
17440 8 0.321794 0.0866678 0.310389
17446 3 0.290821 0.0845846 0.30997
17442 5 0.325189 0.0649165 0.300549
17447 4 0.324666 0.107673 0.300044
17443 4 0.328824 0.026667 0.293184
17439 2 0.329446 0.0515009 0.291004
20048 1 0.284231 0.0889996 0.291109
19989 1 0.276862 0.0281814 0.288414
17445 5 0.351738 0.0573076 0.287505
17444 5 0.311978 0.0557178 0.282802
20057 5 0.274549 0.0907505 0.271315
17495 1 0.300743 0.0579748 0.264044
17506 5 0.331352 0.0262689 0.263595
20054 5 0.271969 0.0276355 0.268249
17438 1 0.309464 0.118997 0.266583
17501 5 0.331507 0.0825165 0.261565
17421 2 0.355746 0.0301903 0.259906
20050 2 0.256671 0.0951216 0.263196
17497 2 0.356855 0.0795866 0.258437
17500 4 0.359882 0.0547931 0.2565
17448 5 0.353133 0.118512 0.288896
17502 5 0.373049 0.0888269 0.26655
20040 6 0.283566 0.0301858 0.309275
17524 5 0.313309 0.120374 0.282237
20056 3 0.25979 0.0792146 0.253499
17838 9 0.326086 0.00502834 0.310428
17857 9 0.281854 0.0701141 0.311442
17428 5 0.375698 0.0253396 0.267972
20004 7 0.269909 0.0241862 0.312608
17369 2 0.328149 0.0017967 0.293367
11770 7 0.493651 0.0693635 0.418338
17437 1 0.377097 0.087544 0.287127
17418 1 0.38115 0.0233151 0.287473
14822 3 0.420651 0.0527354 0.307257
14891 4 0.423158 0.0869976 0.296275
14817 2 0.42702 0.0612948 0.296068
14887 2 0.426913 0.110255 0.291892
14823 5 0.449757 0.0531978 0.292965
14893 5 0.451485 0.112115 0.289799
14897 5 0.410646 0.0549629 0.287114
14892 5 0.409974 0.115972 0.283526
14866 1 0.480063 0.0861508 0.29089
14814 1 0.474471 0.0237714 0.291747
14873 5 0.473888 0.023783 0.27064
14876 5 0.47343 0.0859593 0.271762
14815 1 0.408078 0.0547608 0.266227
14943 1 0.403219 0.118222 0.265269
14954 5 0.433239 0.0850557 0.266337
17412 6 0.388119 0.0206689 0.30837
14869 2 0.456544 0.0923757 0.263236
14872 5 0.433203 0.0160991 0.267926
14867 2 0.455786 0.0160582 0.262232
14948 4 0.455331 0.117294 0.259715
14860 6 0.485715 0.0891212 0.312371
14870 5 0.455478 0.0329506 0.253382
17380 7 0.39596 0.00570893 0.308323
17379 7 0.400725 0.030845 0.309996
15286 9 0.420951 0.064042 0.313002
14875 4 0.455437 0.0769273 0.253881
14828 7 0.496762 0.101188 0.312466
25296 2 0.0547894 0.142651 0.263166
25241 1 0.0764731 0.150328 0.291142
25249 3 0.0218407 0.181074 0.302054
25360 6 0.0811978 0.210339 0.308029
25320 4 0.0311442 0.214735 0.292929
25317 2 0.0303041 0.239816 0.291653
25295 1 0.0815579 0.212952 0.288011
25250 5 0.0516629 0.17801 0.288465
25244 2 0.029618 0.189516 0.290793
25325 5 0.011858 0.1846 0.28272
25302 5 0.0725869 0.148062 0.270705
25305 5 0.0760725 0.213667 0.268978
22742 1 0.103261 0.178468 0.266215
25301 5 0.0307514 0.146486 0.266208
25242 1 0.00782967 0.181107 0.264551
25376 5 0.0333574 0.218917 0.264854
25298 2 0.0574268 0.219019 0.261001
25371 4 0.0610763 0.243038 0.256367
22690 1 0.108813 0.243468 0.264634
22695 5 0.108484 0.181046 0.288348
22773 5 0.112188 0.244144 0.284797
25331 7 0.0928492 0.222802 0.30891
22697 3 0.118592 0.239125 0.304198
25299 5 0.0559735 0.15785 0.253944
25321 5 0.00924909 0.245181 0.285796
25322 5 0.0527516 0.248106 0.28726
22693 3 0.121764 0.178689 0.306891
25330 7 0.0914742 0.199189 0.309395
25289 6 0.0883685 0.144286 0.31111
25499 9 0.0277643 0.237941 0.308307
25304 4 0.0559655 0.201765 0.252286
25255 7 0.0960286 0.129402 0.311266
22945 9 0.121089 0.164626 0.310773
25498 9 0.0221034 0.192969 0.307261
25319 3 0.0267798 0.249732 0.303719
25366 1 0.00396774 0.242897 0.264618
22621 2 0.128773 0.124976 0.29606
22694 4 0.130853 0.149436 0.294702
22691 2 0.128821 0.174862 0.295023
20070 3 0.225353 0.126494 0.307769
22748 4 0.160947 0.177572 0.259505
22674 2 0.158143 0.15253 0.261941
22754 5 0.134949 0.147381 0.265619
20202 5 0.232246 0.212237 0.26432
22672 1 0.179786 0.15014 0.291075
20142 4 0.233064 0.210219 0.296275
20147 5 0.208684 0.178504 0.289898
22696 5 0.151198 0.184188 0.293016
20074 3 0.229677 0.175118 0.307329
20069 2 0.230837 0.185667 0.295925
22689 1 0.175871 0.212758 0.290472
20139 2 0.230203 0.235686 0.294839
20067 1 0.208967 0.180779 0.268216
22680 5 0.176276 0.145844 0.269268
22750 5 0.173664 0.211398 0.269878
22749 5 0.133623 0.202953 0.265874
20125 5 0.232767 0.150051 0.264606
22744 2 0.157351 0.202552 0.261679
22737 6 0.188718 0.211676 0.309981
22698 5 0.152188 0.243042 0.292324
20190 1 0.200642 0.24232 0.266804
20143 5 0.209528 0.242456 0.288337
22736 6 0.184506 0.144407 0.31107
20391 9 0.228386 0.142771 0.306247
22704 7 0.196344 0.135246 0.314214
20141 3 0.230256 0.243263 0.306537
20392 9 0.233891 0.18608 0.312872
22747 5 0.154795 0.218238 0.252317
22679 3 0.159453 0.140234 0.250672
22703 7 0.204417 0.20746 0.309873
20393 9 0.237588 0.231747 0.311233
20144 5 0.250367 0.245308 0.289886
17441 2 0.329434 0.124491 0.291337
20075 5 0.251589 0.176844 0.289988
20121 2 0.254913 0.144445 0.259615
20122 2 0.256352 0.217846 0.26041
17572 4 0.360202 0.182167 0.2591
20126 5 0.273308 0.154975 0.266007
20066 1 0.277743 0.149158 0.286935
17516 2 0.329786 0.174724 0.295118
17518 3 0.327043 0.182129 0.306993
20114 6 0.286919 0.210713 0.310396
17519 4 0.330303 0.148468 0.294824
17521 5 0.350608 0.18434 0.290326
20120 1 0.28195 0.212388 0.289208
17520 5 0.308798 0.182148 0.289219
17595 5 0.307038 0.239729 0.289118
17567 1 0.304944 0.180904 0.266448
20128 5 0.275106 0.211323 0.268288
17577 5 0.334509 0.152258 0.262449
17573 5 0.334935 0.21235 0.26446
17498 2 0.358139 0.157478 0.259012
17569 2 0.357631 0.207589 0.259327
20196 4 0.257981 0.242887 0.257515
20113 6 0.272729 0.143532 0.307521
17523 5 0.349467 0.243377 0.290105
17515 1 0.308843 0.242578 0.266541
17839 9 0.312827 0.190399 0.307303
17522 3 0.323649 0.244259 0.3066
17530 7 0.356563 0.200352 0.306219
20081 7 0.261875 0.156341 0.305514
20080 7 0.29828 0.221544 0.308793
20082 7 0.263983 0.130337 0.306359
17574 5 0.37394 0.220296 0.266681
17453 7 0.336989 0.136593 0.310011
21964 2 0.193942 0.00100514 0.438381
17505 5 0.372796 0.149319 0.267898
17561 6 0.372621 0.204319 0.307891
17514 1 0.376625 0.214639 0.287809
14890 5 0.4229 0.128041 0.299977
17496 1 0.382515 0.149738 0.286843
15020 4 0.460691 0.244242 0.258219
14945 2 0.455297 0.141515 0.261439
14886 1 0.40908 0.183399 0.264001
14894 3 0.383656 0.142376 0.306028
14972 5 0.41048 0.185709 0.281864
14896 5 0.450739 0.184338 0.288863
14888 8 0.413309 0.150049 0.308267
12342 3 0.48128 0.21408 0.305623
14895 4 0.419438 0.173522 0.300066
14964 2 0.428383 0.239193 0.292835
14967 4 0.427932 0.213982 0.293899
14889 2 0.425803 0.189327 0.29111
14944 1 0.48182 0.212992 0.287412
14885 1 0.474493 0.149789 0.287707
14953 5 0.473595 0.211176 0.266833
14936 6 0.474557 0.150504 0.306061
14950 5 0.470387 0.148096 0.270922
15025 5 0.432662 0.213944 0.261499
14949 5 0.43211 0.149391 0.262844
14946 2 0.456808 0.218973 0.258219
15015 1 0.403077 0.247096 0.26439
14969 5 0.450269 0.246148 0.288496
14968 5 0.409375 0.249216 0.286402
14901 7 0.485259 0.155201 0.311205
14966 3 0.426862 0.248324 0.304623
14947 3 0.466124 0.152378 0.250629
25218 6 0.0649431 0.0219014 0.311812
25257 7 0.0965786 0.0731688 0.307214
25183 7 0.0612347 0.0356938 0.315954
25256 7 0.0955672 0.0862702 0.317637
25185 7 0.0640315 0.0707809 0.321697
24544 6 0.0807118 0.01665 0.338187
24654 7 0.10884 0.0677369 0.334747
24655 7 0.110773 0.0922941 0.334413
24614 6 0.0993989 0.080627 0.335579
24820 9 0.0362347 0.0545719 0.335696
24550 1 0.0914894 0.0888121 0.355911
24571 2 0.0376015 0.0617877 0.35188
24576 3 0.026883 0.0501454 0.341717
24577 5 0.0622538 0.0567491 0.35266
24639 2 0.0359529 0.112386 0.351696
24643 4 0.0359654 0.0871227 0.349
24644 5 0.0216321 0.117485 0.361439
24645 5 0.0609065 0.117835 0.35345
24649 5 0.0221093 0.0557835 0.361125
24568 1 0.0848805 0.0256797 0.3571
22022 5 0.121077 0.057927 0.35759
25186 7 0.0706934 0.0518001 0.328305
25217 6 0.0568767 0.0588079 0.325401
24581 7 0.0739571 0.0208984 0.331595
22097 5 0.121486 0.118417 0.356398
22943 9 0.12442 0.0457061 0.314666
1825 7 0.00290626 0.0337519 0.337586
24582 7 0.0705727 0.00428667 0.33966
19992 8 0.216874 0.0237769 0.310969
22634 7 0.155345 0.0795955 0.313767
22024 3 0.134227 0.111128 0.337097
20409 9 0.174601 0.0301116 0.314873
22268 9 0.133998 0.120952 0.331312
22267 9 0.148039 0.0607122 0.335544
22020 3 0.134714 0.053715 0.338569
22032 7 0.202691 0.0109988 0.335989
22021 4 0.135101 0.0232276 0.352376
20065 6 0.238143 0.0182914 0.322109
22631 7 0.183204 0.0861671 0.328108
22632 7 0.200923 0.0996686 0.334308
19714 9 0.223374 0.063218 0.335215
22666 6 0.191811 0.0868384 0.335031
19468 3 0.23494 0.115215 0.336177
19398 3 0.227675 0.051872 0.340059
19466 2 0.240262 0.110103 0.347991
19469 4 0.238678 0.0853394 0.349049
19393 2 0.238242 0.0607265 0.350624