ITEM: TIMESTEP
615000
ITEM: NUMBER OF ATOMS
25520
ITEM: BOX BOUNDS pp pp pp
-3.8855589092906329e-01 6.0087099480930306e+01
-1.9441927653409758e+00 5.9114478039339772e+01
-1.2643593764932495e+01 1.1191932617094193e+02
ITEM: ATOMS id type xs ys zs
25182 6 0.0887344 0.0118363 0.152907
25252 6 0.111563 0.0781969 0.152509
25214 3 0.0309906 0.0434225 0.161258
25287 5 0.0323901 0.053666 0.180043
25283 5 0.072324 0.108955 0.170832
25282 5 0.0318879 0.113528 0.177153
25281 4 0.043696 0.0819117 0.166254
25277 2 0.0479224 0.106809 0.168175
25215 5 0.0694584 0.0504462 0.170674
25209 2 0.0448741 0.0570405 0.169863
25188 1 0.101507 0.082732 0.172802
25458 9 0.0394719 0.0309128 0.159456
25206 1 0.0974963 0.0221469 0.17313
2433 1 0.00152692 0.0206328 0.175889
25220 7 0.0829611 0.0134323 0.145453
25292 7 0.12127 0.0648651 0.153264
25293 7 0.122334 0.0889509 0.150249
25219 7 0.0752689 0.00373229 0.156478
25280 5 0.0420866 0.122958 0.159606
25363 7 0.00237641 0.068082 0.15595
22735 5 0.132209 0.11467 0.1755
22660 5 0.132568 0.0542982 0.172983
22905 9 0.146163 0.0302237 0.150893
22662 3 0.142067 0.112237 0.155524
22658 3 0.145153 0.0448931 0.154043
22656 2 0.151239 0.0441611 0.166321
20112 5 0.231708 0.0509656 0.172495
22663 5 0.174304 0.115289 0.168569
22654 1 0.198003 0.0820566 0.170832
22661 5 0.17424 0.052774 0.169244
22659 4 0.150932 0.0203784 0.17053
22563 1 0.204189 0.0203568 0.173971
22629 6 0.214149 0.0191801 0.154256
22630 6 0.209718 0.0842982 0.151002
22667 7 0.223916 0.0735618 0.151377
22668 7 0.198324 0.0748384 0.146871
20108 5 0.230419 0.113679 0.173682
22669 7 0.2263 0.030398 0.15386
22670 7 0.221549 0.00488452 0.153059
20353 9 0.236213 0.109534 0.151607
20106 3 0.249238 0.115908 0.154808
22657 2 0.149648 0.121274 0.166937
20036 3 0.250025 0.0526876 0.154694
20107 4 0.252925 0.0836931 0.167924
20104 2 0.251685 0.108556 0.167225
20031 2 0.252617 0.0578736 0.166644
20352 9 0.261701 0.0588549 0.150473
22517 7 0.262058 0.0267272 0.139381
20118 7 0.321467 0.067542 0.153778
20117 7 0.317724 0.0924084 0.154809
20077 6 0.309522 0.0788191 0.155048
17480 3 0.347229 0.0471556 0.156611
17799 9 0.359133 0.0541216 0.153328
17478 2 0.351336 0.0437053 0.168827
20109 5 0.273174 0.119445 0.171863
17482 5 0.332509 0.0528614 0.176121
20037 5 0.272997 0.0498268 0.172771
20011 1 0.302338 0.0833439 0.174888
20028 1 0.299995 0.0216737 0.17407
17481 4 0.353828 0.0186633 0.170431
17484 3 0.345109 0.111836 0.155624
20003 6 0.293806 0.00691243 0.154396
20042 7 0.286417 0.0103389 0.147401
22482 6 0.26661 0.01378 0.136216
17560 5 0.330622 0.114852 0.174683
17485 5 0.372619 0.12 0.171137
17483 5 0.372871 0.0546416 0.172708
22518 7 0.260106 0.00154593 0.140418
17479 2 0.348592 0.123277 0.166851
17489 7 0.378392 0.104755 0.154696
17490 7 0.387136 0.0877172 0.146608
17451 6 0.389891 0.0937824 0.153916
14856 3 0.445907 0.0493733 0.157971
15246 9 0.460122 0.0468836 0.154451
14929 4 0.445416 0.0866314 0.167589
14926 2 0.451577 0.110873 0.170117
14851 2 0.44821 0.0616493 0.168971
14931 5 0.474164 0.116613 0.173907
14857 5 0.472138 0.0584947 0.172694
17476 1 0.396307 0.0850051 0.173941
14934 5 0.431024 0.0531796 0.176416
14930 5 0.432241 0.119016 0.176911
17384 1 0.403124 0.0201246 0.176761
17450 6 0.408618 0.0178505 0.156269
17492 7 0.419971 0.0289178 0.154749
22920 9 0.178011 0.133514 0.25011
14848 1 0.495495 0.0223221 0.176975
15247 9 0.44935 0.108249 0.153107
17491 7 0.41771 0.00347486 0.155854
14928 3 0.450954 0.120418 0.157737
14952 3 0.470893 0.217061 0.248555
14940 7 0.487168 0.131581 0.155678
2104 7 0.0184446 0.215493 0.154082
25290 7 0.11968 0.1625 0.157216
2033 7 0.0531806 0.134293 0.134879
25253 6 0.105489 0.154309 0.155666
2032 7 0.0541467 0.161484 0.136141
1995 6 0.0430729 0.147225 0.137279
25275 1 0.095133 0.147275 0.175276
25278 8 0.0328738 0.147345 0.152037
22957 9 0.0932518 0.227774 0.157654
22732 3 0.103647 0.214154 0.157997
25285 4 0.0432875 0.169131 0.160529
25359 5 0.0324221 0.179725 0.179859
25356 5 0.0735045 0.239102 0.172847
25354 4 0.0467206 0.208862 0.167928
25351 2 0.0500087 0.233347 0.167949
25286 5 0.0712611 0.177416 0.173352
25279 2 0.0478114 0.183833 0.170443
25259 1 0.101447 0.210253 0.177341
25355 5 0.0320636 0.242535 0.176799
25394 6 0.0757885 0.184743 0.143766
25291 7 0.0957698 0.164043 0.150918
25432 7 0.0657058 0.184461 0.149838
25433 7 0.08501 0.196225 0.146108
25284 3 0.00370164 0.150235 0.156026
25353 3 0.0450232 0.244097 0.157246
2065 6 0.0073324 0.205107 0.155707
2103 7 0.0168397 0.19219 0.156693
1933 1 0.000610797 0.145885 0.175816
22906 9 0.131581 0.12195 0.152661
1962 7 0.14962 0.192082 0.135908
22741 7 0.214022 0.163713 0.149164
22726 8 0.13271 0.211528 0.152769
1963 7 0.152788 0.220534 0.135893
22740 7 0.191113 0.1577 0.144141
1927 6 0.142749 0.207092 0.137902
22730 5 0.131048 0.174845 0.178364
22700 6 0.200593 0.155153 0.150649
22636 1 0.202177 0.147171 0.170582
22729 4 0.14743 0.146926 0.166027
22733 4 0.144195 0.232203 0.160827
20188 7 0.17537 0.229764 0.157865
20189 7 0.200255 0.236242 0.153097
20148 6 0.189363 0.223642 0.154105
22728 5 0.138348 0.187584 0.160608
22725 2 0.14736 0.171825 0.16937
20178 5 0.230979 0.238439 0.175898
20183 5 0.233479 0.179104 0.172759
22723 1 0.196664 0.209938 0.17336
22731 5 0.170639 0.177377 0.171541
20110 3 0.241686 0.169873 0.154286
22734 5 0.171733 0.244777 0.172892
22807 5 0.130781 0.244121 0.178554
20177 4 0.244855 0.209365 0.162135
20173 2 0.247411 0.233823 0.166792
20105 2 0.250162 0.184845 0.163899
22727 2 0.147952 0.248565 0.169887
20354 9 0.244337 0.155121 0.155976
17800 9 0.343083 0.123422 0.150454
17555 4 0.343981 0.148265 0.165827
20102 1 0.297249 0.149111 0.173698
17554 3 0.347052 0.183048 0.155158
17801 9 0.341983 0.197138 0.154984
17558 3 0.345287 0.232597 0.156101
17552 2 0.349264 0.172889 0.166715
17556 5 0.329877 0.181191 0.173426
20111 5 0.274418 0.179998 0.166798
20084 1 0.301148 0.210449 0.173136
20179 5 0.271375 0.236944 0.170096
17631 5 0.333877 0.239032 0.174392
17557 5 0.372488 0.177322 0.170344
17553 2 0.350323 0.246335 0.166352
17802 9 0.352585 0.238501 0.149972
17559 5 0.374532 0.242719 0.169812
14898 6 0.499154 0.140873 0.154398
17565 7 0.418653 0.136301 0.15319
17563 7 0.39514 0.205045 0.143902
17564 7 0.415426 0.218626 0.148206
17566 7 0.416731 0.160568 0.151712
14938 7 0.48389 0.204314 0.141243
14937 7 0.462511 0.193965 0.144468
17525 6 0.407575 0.148069 0.152632
17459 1 0.402508 0.147828 0.173758
17526 6 0.401478 0.210629 0.150914
14899 6 0.467578 0.206311 0.140769
15248 9 0.45185 0.159303 0.156678
15002 3 0.446746 0.233926 0.155862
14932 3 0.44856 0.174572 0.157737
15000 2 0.451612 0.232022 0.167993
15003 4 0.450721 0.207542 0.170386
14927 2 0.453912 0.182587 0.169255
15005 5 0.474536 0.241243 0.170958
14933 5 0.477496 0.176697 0.173226
15004 5 0.43326 0.242414 0.174495
17550 1 0.399816 0.208216 0.171445
15008 5 0.435234 0.174126 0.176354
15249 9 0.457713 0.225128 0.151134
14939 7 0.493598 0.15016 0.149443
17537 4 0.379817 0.179399 0.202787
22648 6 0.116063 0.0467963 0.248189
25202 7 0.0723898 0.00894276 0.225345
25343 6 0.000838381 0.241351 0.243526
25236 7 0.0296574 0.0625267 0.243768
25237 7 0.0338992 0.0382109 0.24475
25471 9 0.0662553 0.0153648 0.242655
25198 5 0.095589 0.0841918 0.191517
25195 5 0.0973641 0.0222535 0.193518
25268 5 0.0551861 0.0890092 0.197446
25258 1 0.0257366 0.117925 0.196423
25207 1 0.0285467 0.0538566 0.199023
25191 2 0.0795751 0.0897235 0.200379
25263 4 0.0813356 0.114114 0.204009
25197 4 0.0793643 0.0759039 0.210745
25192 5 0.0796211 0.0309855 0.212315
25196 3 0.0384036 0.0509706 0.217813
25190 8 0.0690535 0.0540816 0.21928
25510 9 0.0282057 0.0500559 0.224541
25517 7 0.0941173 0.0740341 0.234011
25240 6 0.0857882 0.0589533 0.232392
22685 7 0.086998 0.100534 0.21968
25506 7 0.0775852 0.0540432 0.239945
22649 6 0.0895889 0.108802 0.226439
25194 5 0.0561825 0.0223999 0.199394
25189 2 0.0804343 0.0164491 0.202563
25308 6 0.0241881 0.109712 0.217237
25472 9 0.0576104 0.0951243 0.243383
25272 7 0.0272717 0.109937 0.22492
25201 6 0.0205265 0.0481227 0.244131
25271 7 0.0110019 0.100489 0.217237
22684 7 0.0754177 0.112386 0.228722
22687 7 0.118082 0.0469454 0.240595
25309 7 0.0310896 0.121036 0.237817
25270 6 0.0469611 0.120296 0.237001
22760 7 0.0999297 0.102439 0.241503
25231 3 0.0590214 0.0825291 0.248255
25205 7 0.00632404 0.00252987 0.220431
22635 1 0.127231 0.0522519 0.193803
22958 9 0.123802 0.121519 0.218896
22650 7 0.111969 0.0380089 0.215503
25203 7 0.0504093 0.00184833 0.228771
25227 3 0.0639732 0.027639 0.24811
22717 6 0.109728 0.0995545 0.247803
22679 3 0.163832 0.142348 0.249078
12329 7 0.430509 0.15047 0.22331
12406 7 0.497099 0.246451 0.23928
22683 6 0.123107 0.0488638 0.214051
22651 7 0.125715 0.0571243 0.220702
22655 1 0.130133 0.116265 0.194166
20062 7 0.147217 0.0811997 0.235575
20023 6 0.139604 0.0736397 0.229299
20134 7 0.222254 0.067194 0.242306
20061 7 0.153207 0.0671697 0.225878
22643 5 0.19612 0.0838934 0.19116
22572 5 0.197181 0.0192508 0.195325
20083 1 0.223494 0.114108 0.19265
20029 1 0.230174 0.0539669 0.194472
22642 5 0.154926 0.0757601 0.193709
20063 7 0.178776 0.0511888 0.220735
22637 2 0.177804 0.0774311 0.198338
22641 4 0.181871 0.05353 0.202442
22565 2 0.179487 0.0280307 0.203513
22640 5 0.17309 0.0947791 0.206882
20060 6 0.231794 0.0643226 0.215172
20022 6 0.180417 0.0616882 0.226111
20064 7 0.180263 0.0748011 0.22098
22647 5 0.157364 0.0199128 0.199369
20096 6 0.210015 0.0599563 0.246018
22571 3 0.18377 0.0207733 0.215141
22638 8 0.166975 0.117156 0.215346
22644 3 0.135661 0.117194 0.213364
20135 7 0.198656 0.062184 0.24025
22965 7 0.172722 0.0953106 0.233515
22577 7 0.150165 0.0364916 0.231447
20025 7 0.243904 0.0727213 0.218581
22688 6 0.173436 0.111254 0.230487
22612 6 0.153178 0.022243 0.233533
22576 7 0.166334 0.0176673 0.228706
20024 7 0.23383 0.0495489 0.218717
22918 9 0.163594 0.0208278 0.247533
22931 9 0.199184 0.0235085 0.217087
20130 6 0.237375 0.0894616 0.235157
17471 6 0.229937 0.027335 0.227178
17510 7 0.217581 0.0333265 0.231824
22954 7 0.166684 0.123136 0.236321
20133 7 0.193932 0.107886 0.245015
20097 6 0.2066 0.114198 0.249174
14913 5 0.49532 0.152271 0.196804
22613 7 0.129779 0.00365297 0.241339
17509 7 0.242606 0.0266933 0.231914
20101 7 0.249338 0.099689 0.233785
22759 7 0.119293 0.0871567 0.245146
20132 7 0.218599 0.105574 0.245825
20100 7 0.227778 0.0960162 0.230046
20365 9 0.27574 0.0328356 0.245241
20366 9 0.259275 0.0828571 0.247237
20095 5 0.254436 0.0841013 0.198686
20016 5 0.254642 0.026011 0.195411
17456 7 0.311952 0.060354 0.237386
20020 5 0.29741 0.0838457 0.196087
20017 5 0.296111 0.0255177 0.195637
17477 1 0.328292 0.117227 0.195466
17458 1 0.322991 0.056471 0.196897
17464 5 0.354588 0.0881758 0.198071
20013 2 0.278199 0.0890626 0.203772
20379 9 0.288599 0.0652304 0.215429
20089 4 0.279371 0.115335 0.205186
20019 3 0.280107 0.0780321 0.215214
20378 9 0.291309 0.0310247 0.214619
17466 6 0.319313 0.0480177 0.218074
17493 7 0.330295 0.0583621 0.220093
17494 7 0.326206 0.0338862 0.218286
14960 7 0.342678 0.0895956 0.232584
14918 6 0.342377 0.0855879 0.225051
14959 7 0.356663 0.0884509 0.22208
17469 5 0.350927 0.0225423 0.199892
20014 3 0.276767 0.0252918 0.213144
20012 2 0.275171 0.0170656 0.201301
17503 6 0.302148 0.0552079 0.243061
17499 3 0.359889 0.0921733 0.246294
17457 7 0.28932 0.0640408 0.241706
17473 7 0.329776 0.112201 0.220011
17583 7 0.327981 0.111432 0.245686
14847 7 0.368276 0.0341004 0.23833
14846 7 0.367963 0.0588152 0.2336
17860 7 0.365538 0.00377076 0.227005
20051 3 0.26111 0.0270509 0.245816
17463 4 0.374467 0.0559004 0.202749
17825 9 0.376307 0.0334215 0.219565
17544 6 0.320056 0.126031 0.246022
17511 7 0.266513 0.00380331 0.223325
17813 9 0.373849 0.0994043 0.245845
14919 6 0.409698 0.19055 0.243231
17549 7 0.293886 0.120235 0.233159
17512 7 0.267965 0.00628992 0.235283
17507 6 0.320069 0.00215914 0.217542
17386 2 0.374319 0.0308563 0.202876
17460 2 0.376643 0.0808833 0.202357
14878 6 0.374801 0.0439343 0.232968
17462 3 0.381962 0.0921939 0.213438
17826 9 0.392083 0.0822796 0.21738
17391 3 0.381794 0.0229962 0.21422
15272 9 0.477675 0.0117243 0.220046
14840 5 0.493585 0.0849366 0.1977
17465 5 0.393075 0.0866882 0.1933
14906 1 0.423725 0.118291 0.197105
17392 5 0.392677 0.0240358 0.194583
14849 1 0.428868 0.0556043 0.197146
14917 5 0.452971 0.0850138 0.199266
14837 5 0.449423 0.0236107 0.200902
14911 4 0.475748 0.119673 0.204313
14834 2 0.474961 0.0945369 0.203923
14839 3 0.477946 0.0840137 0.215277
14955 6 0.419236 0.058383 0.216706
15273 9 0.473869 0.0948068 0.22079
14922 7 0.410086 0.0465663 0.218833
14923 7 0.43184 0.0563576 0.22158
15308 7 0.473188 0.055382 0.227418
14884 6 0.458753 0.0481512 0.230369
15297 7 0.461652 0.0315137 0.228339
15303 9 0.407192 0.0552734 0.240384
14868 8 0.448756 0.0545223 0.244764
14835 3 0.48071 0.0224678 0.214739
14874 3 0.418226 0.0545556 0.246917
14833 2 0.472683 0.0146305 0.203094
14838 5 0.490298 0.0200095 0.194991
14941 7 0.412185 0.11275 0.225035
12366 6 0.473965 0.109805 0.233058
12408 7 0.471072 0.124634 0.235685
14951 6 0.401998 0.119144 0.243647
12407 7 0.468395 0.0990191 0.23931
14914 6 0.415754 0.121454 0.218514
14905 7 0.411697 0.129998 0.241563
9776 7 0.475272 0.231469 0.222691
22960 9 0.109537 0.247953 0.238903
25345 7 0.0058083 0.227346 0.21885
25310 7 0.051739 0.131726 0.242291
25512 9 0.00332102 0.172319 0.240634
25484 9 0.0912614 0.135762 0.219183
25267 5 0.0939273 0.208724 0.196224
25265 5 0.0939789 0.147447 0.194295
25303 3 0.0150675 0.177017 0.246311
25260 2 0.0788736 0.139528 0.203378
25264 5 0.0555614 0.145504 0.200389
25332 1 0.0241144 0.240017 0.197291
25276 1 0.0298696 0.179222 0.198541
25342 5 0.053542 0.209844 0.201977
25337 4 0.0762892 0.241883 0.205779
25261 2 0.0767467 0.217191 0.204754
25266 3 0.0840715 0.207033 0.216115
25262 3 0.0856292 0.147819 0.214563
25485 9 0.0946406 0.217543 0.21958
22720 7 0.108398 0.171157 0.218297
25377 6 0.0182355 0.183465 0.218298
25507 7 0.0706021 0.192752 0.228129
25518 7 0.0657562 0.165401 0.227228
25314 6 0.0597949 0.179937 0.231171
25297 8 0.0451139 0.17837 0.244589
22751 3 0.120676 0.24249 0.244863
22758 7 0.0940182 0.191575 0.242152
22718 6 0.105825 0.186555 0.24697
25348 7 0.0310791 0.181808 0.22335
25347 7 0.0091396 0.16974 0.218967
25378 6 0.0152272 0.240547 0.218783
22791 6 0.0788918 0.243252 0.230527
22829 7 0.0716157 0.235727 0.236468
22830 7 0.0722782 0.23616 0.224089
22706 1 0.126806 0.177148 0.196755
25382 7 0.00774824 0.240641 0.236369
22825 6 0.11861 0.239634 0.21726
22756 6 0.124473 0.172689 0.216671
22757 7 0.119289 0.188766 0.242219
12352 7 0.492231 0.169061 0.244858
22795 7 0.104783 0.245205 0.220582
20131 6 0.220985 0.126986 0.211848
20099 7 0.235466 0.136051 0.211442
20098 7 0.208933 0.137423 0.214004
22719 7 0.131611 0.176634 0.223363
22724 1 0.128023 0.241908 0.198149
20167 7 0.206158 0.228006 0.214471
22646 5 0.196059 0.147855 0.190751
22713 5 0.194924 0.211146 0.1938
20103 1 0.228512 0.177327 0.192141
22716 5 0.15623 0.144455 0.194782
20154 1 0.224343 0.24281 0.194829
22722 7 0.150544 0.171087 0.243947
22645 4 0.178686 0.142059 0.209993
22712 5 0.153907 0.210743 0.199055
22639 2 0.17844 0.153078 0.199111
22708 2 0.176818 0.202685 0.201524
22711 4 0.178122 0.178356 0.200534
22710 3 0.182569 0.206292 0.213601
22932 9 0.184857 0.191598 0.217544
20204 6 0.216091 0.240602 0.213584
20092 3 0.229162 0.176814 0.211184
22721 7 0.152652 0.197438 0.242728
20406 9 0.216272 0.175163 0.216936
22745 8 0.152161 0.244139 0.24339
20166 6 0.188862 0.168845 0.226856
20206 7 0.175999 0.171524 0.231955
22755 6 0.146852 0.183458 0.238876
20205 7 0.182379 0.159342 0.221557
22762 6 0.162701 0.244692 0.228747
20169 7 0.200864 0.176113 0.240071
20203 6 0.211285 0.179861 0.246124
20170 7 0.227114 0.180939 0.243364
22966 7 0.169822 0.232311 0.224728
14908 2 0.475801 0.144804 0.20433
14956 6 0.426913 0.196885 0.215422
17475 7 0.304529 0.000573753 0.21965
17548 7 0.278378 0.122115 0.223377
17578 6 0.279148 0.125412 0.231047
17508 6 0.332037 0.125307 0.215356
12291 6 0.437467 0.162057 0.227712
17582 7 0.333278 0.135114 0.246355
25269 6 0.000793832 0.119008 0.244837
17472 7 0.347674 0.129928 0.215608
20090 5 0.250848 0.140744 0.195779
17504 3 0.363371 0.150406 0.246405
17617 7 0.273565 0.221064 0.222399
17581 7 0.299101 0.251637 0.237918
20367 9 0.265108 0.139395 0.243622
20164 5 0.254326 0.207189 0.193635
17651 6 0.278945 0.232974 0.226832
20368 9 0.268182 0.222434 0.24143
20091 5 0.293214 0.145459 0.192709
20094 5 0.29433 0.207276 0.19365
17531 1 0.322837 0.177951 0.195395
17551 1 0.329069 0.240898 0.194803
17538 5 0.354353 0.205805 0.194613
17543 5 0.353989 0.147473 0.197715
20085 2 0.275134 0.138975 0.200247
20086 8 0.25816 0.17721 0.216117
20087 2 0.273853 0.215094 0.199589
20159 4 0.273988 0.241183 0.199215
20088 5 0.269973 0.156047 0.208658
20093 4 0.270802 0.200232 0.208911
17547 7 0.304685 0.180873 0.219133
17540 3 0.3333 0.239758 0.213861
17579 6 0.318799 0.176848 0.215692
17546 7 0.322294 0.162084 0.218797
20136 6 0.275887 0.180364 0.22944
20413 7 0.273609 0.194405 0.234358
20402 7 0.27219 0.167446 0.235291
17534 8 0.363826 0.238498 0.217339
17814 9 0.365838 0.164207 0.242572
20127 3 0.262148 0.210683 0.246162
14996 7 0.358108 0.176862 0.229056
20123 3 0.26162 0.151934 0.248182
17618 7 0.280181 0.246087 0.222118
17536 5 0.372779 0.217468 0.208638
15026 6 0.372574 0.180143 0.227703
17861 7 0.372292 0.217043 0.23478
17854 9 0.320132 0.245658 0.21888
17827 9 0.379452 0.160382 0.21904
17461 2 0.376527 0.154259 0.202506
17850 7 0.377913 0.244607 0.236004
14957 7 0.421568 0.188151 0.237656
17584 6 0.379163 0.230465 0.230177
14909 2 0.47961 0.216401 0.202233
14997 7 0.370687 0.191587 0.22193
15261 9 0.450371 0.151697 0.242859
17468 5 0.395805 0.14508 0.195988
14925 1 0.428194 0.180217 0.196295
14991 5 0.456648 0.211214 0.197851
14992 6 0.414606 0.238008 0.247297
15031 7 0.408189 0.233368 0.240477
12353 7 0.490938 0.195487 0.242925
14942 7 0.400903 0.1252 0.216023
12328 7 0.452939 0.159194 0.226886
15275 9 0.475878 0.191822 0.213957
17798 9 0.344136 0.000784106 0.15408
9739 6 0.474024 0.243522 0.227867
14947 3 0.464246 0.147873 0.246471
15262 9 0.472458 0.229856 0.243842
14979 1 0.42796 0.241417 0.195369
15027 6 0.42863 0.245492 0.216059
14904 7 0.388682 0.123363 0.240607
17467 3 0.377584 0.146986 0.214532
14958 7 0.397178 0.185844 0.239114
15274 9 0.486357 0.141494 0.220091
14921 7 0.432368 0.183134 0.220056
17533 2 0.378378 0.203886 0.198355
14920 7 0.440585 0.204401 0.212956
14916 5 0.49801 0.209934 0.194141
14995 7 0.418946 0.239076 0.221368
14910 3 0.481412 0.154025 0.215492
17539 5 0.395892 0.20978 0.190262
14985 4 0.482352 0.241129 0.204509
14915 3 0.483344 0.205293 0.213212
14912 5 0.452908 0.151941 0.200626
14994 7 0.442868 0.245677 0.219902
20186 7 0.285701 0.247966 0.158115
17580 7 0.320993 0.241292 0.239498
20165 6 0.20871 0.248528 0.247261
20207 7 0.222908 0.243545 0.246213
22796 7 0.129532 0.240972 0.223362
14875 4 0.463265 0.0787203 0.249214
25178 3 0.0275536 0.048384 0.304444
25245 3 0.0186456 0.112593 0.30603
25251 5 0.0110953 0.0508852 0.285382
25246 4 0.0278692 0.0829378 0.293175
25243 2 0.0289216 0.10736 0.294801
25224 1 0.0826811 0.0854837 0.288621
25179 5 0.0527344 0.0516517 0.289061
25173 2 0.029731 0.0577859 0.292841
25170 1 0.0791547 0.0242325 0.288424
25232 5 0.0755924 0.0842264 0.267499
25230 5 0.0771722 0.0274506 0.267414
22671 1 0.107016 0.0573337 0.267402
25171 1 0.0116172 0.0530645 0.2647
25229 5 0.0362941 0.0237749 0.262477
25306 5 0.0356989 0.0833522 0.264037
25226 2 0.0578528 0.0913147 0.259896
25225 2 0.0596942 0.0193189 0.259245
25496 9 0.025095 0.0321558 0.303949
25288 6 0.0833521 0.0815789 0.309323
22619 1 0.109999 0.118419 0.266947
25300 4 0.0563901 0.11717 0.259614
25248 5 0.0523033 0.115853 0.292297
22699 5 0.112797 0.111974 0.287868
22624 5 0.112528 0.0573641 0.288908
25218 6 0.0808854 0.0181105 0.309477
25294 1 0.00473585 0.115175 0.266446
25184 7 0.0957884 0.0228848 0.310062
22944 9 0.135054 0.0964882 0.30663
24709 7 -0.000665896 0.242627 0.397818
25247 5 0.0128987 0.116275 0.286681
25497 9 0.00658208 0.122891 0.305756
22622 3 0.128296 0.0634458 0.308497
25174 3 0.0260607 0.000845245 0.306877
22626 3 0.132458 0.112369 0.306676
22623 4 0.128494 0.025946 0.297931
22681 5 0.13765 0.026253 0.265695
22620 2 0.131302 0.0512399 0.297607
19999 4 0.227159 0.0473393 0.302386
19993 2 0.231592 0.0658281 0.295161
20068 2 0.232209 0.115858 0.297551
20071 4 0.230223 0.0906754 0.299314
22625 5 0.154914 0.0573887 0.293106
22627 5 0.154663 0.114307 0.291054
22618 1 0.179442 0.0880365 0.290244
20076 5 0.214701 0.0625127 0.286026
22600 1 0.185417 0.0259959 0.290679
22609 5 0.178808 0.0284813 0.273077
22678 5 0.178372 0.0903993 0.269424
19990 1 0.212238 0.0578482 0.26644
22677 5 0.137003 0.0886107 0.265226
20129 5 0.237831 0.0894381 0.265001
20053 5 0.236337 0.0271721 0.263102
22602 2 0.161847 0.0316044 0.263613
22673 2 0.160412 0.0817318 0.261383
22676 4 0.163479 0.056486 0.260561
20119 1 0.209263 0.119191 0.269504
22665 6 0.180742 0.0996738 0.310441
19992 8 0.221247 0.0229979 0.309212
19998 3 0.190181 0.0258627 0.309446
22608 3 0.171801 0.019346 0.254409
19994 5 0.22716 0.00185185 0.299852
22633 7 0.165278 0.10507 0.309648
22545 2 0.130562 0.00183434 0.294072
22675 3 0.164183 0.0916315 0.249944
22919 9 0.164598 0.107434 0.250549
22621 2 0.132476 0.121275 0.29496
20000 5 0.255213 0.0623656 0.291057
17448 5 0.356581 0.119436 0.287463
17440 8 0.324006 0.0897999 0.309528
17446 3 0.29244 0.0908049 0.309471
17442 5 0.33004 0.0688528 0.300495
17447 4 0.327028 0.113033 0.301042
17443 4 0.335258 0.0278227 0.295949
17439 2 0.334548 0.0519859 0.291927
20048 1 0.286169 0.0908041 0.29045
19989 1 0.279275 0.0284862 0.286327
17445 5 0.3569 0.0609179 0.288732
17444 5 0.316285 0.0564304 0.283877
20057 5 0.277303 0.0901666 0.271657
17495 1 0.3056 0.0588394 0.264582
17506 5 0.3351 0.0244887 0.266722
20054 5 0.278019 0.0303403 0.265122
17438 1 0.311419 0.123178 0.266161
17501 5 0.334205 0.0912318 0.26232
17421 2 0.356542 0.0327604 0.261506
20050 2 0.262066 0.0969457 0.262513
20049 2 0.258472 0.0200459 0.258215
17497 2 0.356045 0.0824924 0.257676
20040 6 0.287318 0.0289448 0.306212
17500 4 0.355103 0.0567492 0.257556
20073 5 0.255344 0.121651 0.293224
20124 4 0.262122 0.122313 0.262716
20056 3 0.272037 0.0871981 0.251692
17427 4 0.354625 0.0176027 0.251937
20004 7 0.297964 0.0189774 0.309283
17369 2 0.333135 0.0020964 0.295261
20005 7 0.276175 0.029324 0.312518
17502 5 0.375545 0.0892756 0.264761
17428 5 0.376083 0.0270478 0.268898
17437 1 0.381615 0.088863 0.284817
14822 3 0.419541 0.0548911 0.30329
14891 4 0.432197 0.090557 0.293523
14817 2 0.431771 0.0647907 0.292885
14887 2 0.430363 0.114682 0.290103
14823 5 0.454766 0.0561035 0.29051
17418 1 0.38719 0.0244102 0.288688
14893 5 0.454119 0.123285 0.287739
14897 5 0.413978 0.0592726 0.283606
14892 5 0.413977 0.116817 0.280636
14866 1 0.482622 0.0898908 0.289199
14814 1 0.48138 0.0262624 0.290506
14873 5 0.477127 0.0228026 0.26955
14876 5 0.478312 0.0861228 0.26809
14815 1 0.410358 0.0563955 0.265486
14943 1 0.406786 0.119097 0.264659
14954 5 0.437447 0.0856227 0.264269
17412 6 0.390995 0.018759 0.309441
14869 2 0.460365 0.0921896 0.25958
14872 5 0.434298 0.0128538 0.266828
14867 2 0.457128 0.0161918 0.262421
14948 4 0.459007 0.117557 0.259503
14860 6 0.486878 0.0890597 0.30993
17380 7 0.402272 0.00731505 0.309293
14870 5 0.456197 0.0343924 0.254004
17379 7 0.400344 0.0310995 0.309705
19366 7 0.321569 0.000312358 0.496964
15286 9 0.420761 0.0651486 0.309033
25304 4 0.0563902 0.200036 0.252392
25296 2 0.0562136 0.141682 0.261459
25241 1 0.0766163 0.146403 0.28948
25249 3 0.0283215 0.179871 0.304827
25360 6 0.0884523 0.2095 0.306254
25320 4 0.0298546 0.21046 0.292472
25317 2 0.0307198 0.235284 0.292749
25295 1 0.0841168 0.21102 0.286579
25250 5 0.0544814 0.177594 0.290302
25244 2 0.0312972 0.185986 0.292603
25325 5 0.0122679 0.175871 0.286603
25302 5 0.076691 0.148312 0.267778
25305 5 0.0762725 0.211918 0.26893
22742 1 0.105498 0.177482 0.266861
25301 5 0.0351122 0.150219 0.265919
25242 1 0.00896903 0.17909 0.265529
25376 5 0.0329938 0.218409 0.265244
25298 2 0.0581612 0.21819 0.260952
25289 6 0.0751925 0.153015 0.309906
25498 9 0.02608 0.192736 0.309347
25371 4 0.0617325 0.24251 0.25622
22690 1 0.112366 0.241886 0.26389
22695 5 0.113176 0.178568 0.286445
22773 5 0.115141 0.245758 0.281438
25499 9 0.0307749 0.230116 0.309513
25366 1 0.00543031 0.244521 0.26378
25322 5 0.0536988 0.243 0.28911
25299 5 0.0559822 0.153832 0.250895
25330 7 0.0967139 0.20185 0.312352
25331 7 0.0981929 0.221821 0.304066
25319 3 0.0268697 0.241558 0.305038
22945 9 0.113245 0.171791 0.309583
22693 3 0.125626 0.179293 0.306083
25321 5 0.0137185 0.244184 0.285035
22697 3 0.119301 0.24495 0.301931
25254 7 0.0632121 0.162905 0.30821
20072 5 0.214896 0.120705 0.289211
20070 3 0.227095 0.129334 0.307949
20391 9 0.238884 0.138092 0.310183
22694 4 0.128327 0.146735 0.294509
22691 2 0.130626 0.17136 0.294695
22748 4 0.161508 0.180012 0.258059
22674 2 0.160218 0.153989 0.259943
22754 5 0.137023 0.14869 0.263808
20202 5 0.236894 0.214608 0.262669
22672 1 0.184085 0.152182 0.288726
20142 4 0.235956 0.212797 0.293715
20147 5 0.21235 0.184724 0.287211
22696 5 0.153306 0.178765 0.29137
20074 3 0.228172 0.183489 0.306316
20069 2 0.233298 0.188232 0.294129
22689 1 0.1787 0.212744 0.28958
20392 9 0.229655 0.197366 0.310306
20139 2 0.23376 0.238031 0.294484
20067 1 0.211622 0.18353 0.265123
22680 5 0.178246 0.147162 0.268353
22750 5 0.17486 0.211714 0.270407
22749 5 0.135622 0.208949 0.265666
20125 5 0.236919 0.153955 0.264975
22744 2 0.159114 0.205828 0.26108
22737 6 0.188829 0.218204 0.30916
22736 6 0.190668 0.155446 0.309128
22698 5 0.153384 0.239948 0.289787
20190 1 0.204284 0.242892 0.267381
20393 9 0.235627 0.230163 0.310967
20141 3 0.23424 0.243521 0.306738
22704 7 0.198899 0.141111 0.30964
22747 5 0.157522 0.220963 0.2513
22703 7 0.203813 0.218814 0.311565
19367 7 0.331217 0.00526967 0.485677
20143 5 0.213661 0.245773 0.287693
22705 7 0.202988 0.165772 0.308789
14260 6 0.500101 0.0851545 0.333094
17524 5 0.315124 0.122939 0.283479
17441 2 0.333164 0.126438 0.29147
20075 5 0.256708 0.180751 0.291184
20144 5 0.255464 0.245638 0.28918
17572 4 0.362892 0.18348 0.257107
20126 5 0.277624 0.156778 0.266331
20066 1 0.280817 0.150893 0.288499
17516 2 0.33402 0.176919 0.294237
17518 3 0.331449 0.183116 0.306592
20114 6 0.292959 0.212876 0.307072
17519 4 0.333274 0.15153 0.294049
17521 5 0.354408 0.187476 0.289377
20120 1 0.28605 0.213402 0.286794
17520 5 0.315218 0.184308 0.287234
17595 5 0.315073 0.245582 0.284492
17567 1 0.306779 0.183641 0.266601
20128 5 0.277954 0.211138 0.265387
17577 5 0.336732 0.154368 0.262002
17573 5 0.336889 0.211022 0.264617
17498 2 0.359959 0.157483 0.258664
20121 2 0.259003 0.146492 0.260164
17569 2 0.360527 0.207378 0.260391
20122 2 0.259708 0.220086 0.257876
20196 4 0.26098 0.246005 0.257191
20113 6 0.276564 0.162365 0.308892
17523 5 0.354117 0.242217 0.290124
17515 1 0.311895 0.245122 0.263928
17522 3 0.325231 0.243278 0.304166
17839 9 0.322275 0.195588 0.307114
20079 7 0.304268 0.22355 0.308196
20081 7 0.261346 0.165072 0.309479
17530 7 0.36345 0.20358 0.30839
17815 9 0.36264 0.238167 0.252309
17561 6 0.37869 0.207585 0.309447
20082 7 0.283402 0.174958 0.310739
15305 9 0.372792 0.154077 0.311664
17574 5 0.377483 0.215072 0.268448
17505 5 0.378756 0.152606 0.266865
17514 1 0.380386 0.21394 0.288809
14890 5 0.419647 0.129421 0.298254
15020 4 0.46115 0.24796 0.261491
14945 2 0.459225 0.14219 0.258475
14886 1 0.413329 0.182854 0.263099
14894 3 0.383911 0.149272 0.305593
14972 5 0.415494 0.186698 0.280163
14896 5 0.452797 0.181674 0.287118
14888 8 0.414813 0.150256 0.307846
12342 3 0.484923 0.209372 0.308545
14895 4 0.420346 0.171992 0.298577
14964 2 0.431519 0.238434 0.295391
14967 4 0.429298 0.212644 0.295342
14889 2 0.429941 0.18885 0.290499
17496 1 0.385864 0.152456 0.287016
14944 1 0.486804 0.212237 0.288532
14885 1 0.479469 0.153094 0.287329
14953 5 0.478889 0.213586 0.268
14936 6 0.47904 0.147757 0.307515
14950 5 0.477265 0.151236 0.266276
15025 5 0.439217 0.213444 0.260081
14949 5 0.435425 0.150529 0.259761
14946 2 0.462198 0.223049 0.259807
15015 1 0.408105 0.244424 0.267519
14969 5 0.454191 0.243652 0.291235
14968 5 0.413493 0.246042 0.287509
14966 3 0.428027 0.248302 0.306664
14901 7 0.48729 0.13787 0.31186
25257 7 0.0946996 0.0737155 0.312723
24819 9 0.0177598 0.00535112 0.342198
25183 7 0.0756808 0.0198867 0.316708
25256 7 0.0699827 0.0787475 0.313231
24544 6 0.0680001 0.0224126 0.336619
24654 7 0.102135 0.0920833 0.334391
24655 7 0.0825807 0.0797107 0.328696
24614 6 0.0900915 0.0806368 0.335603
24820 9 0.0281879 0.0608482 0.33523
24550 1 0.0865354 0.0834354 0.356278
24571 2 0.0317694 0.059899 0.351822
24576 3 0.025907 0.0494404 0.340665
24577 5 0.0556821 0.0522364 0.35474
24639 2 0.0307315 0.110992 0.35224
24643 4 0.0308781 0.0853942 0.351102
24644 5 0.0152062 0.115807 0.362046
24645 5 0.0549897 0.116584 0.352344
24649 5 0.0166001 0.0548376 0.361149
24568 1 0.0801146 0.0244001 0.356542
22022 5 0.115922 0.0556586 0.356899
22097 5 0.116241 0.117206 0.355272
24582 7 0.0565257 0.0126543 0.339041
24581 7 0.059941 0.0351155 0.336658
25186 7 0.0351346 0.0849613 0.320213
25217 6 0.0406044 0.0711783 0.323138
25185 7 0.0374252 0.0600536 0.317599
22267 9 0.119729 0.0594842 0.337296
22634 7 0.187314 0.113193 0.313217
22943 9 0.135765 0.0546293 0.314121
22266 9 0.130647 0.0115876 0.336346
22024 3 0.128829 0.109643 0.336578
22020 3 0.132308 0.0499028 0.337804
20409 9 0.179608 0.0268583 0.316028
22032 7 0.204811 0.0385819 0.335963
22021 4 0.136389 0.0240263 0.353917
20065 6 0.244619 0.0198978 0.319938
22631 7 0.209683 0.0945905 0.331966
22632 7 0.187719 0.0856261 0.327939
19714 9 0.228296 0.067286 0.332608
22666 6 0.196965 0.0850913 0.334314
19468 3 0.23227 0.114358 0.336618
19398 3 0.233838 0.0540845 0.336202
19466 2 0.236069 0.109376 0.348864
19469 4 0.233297 0.0841619 0.35111
19393 2 0.236798 0.0596194 0.348486
19474 5 0.220009 0.0481701 0.355712
22016 1 0.184319 0.0848305 0.353884