ITEM: TIMESTEP
213000
ITEM: NUMBER OF ATOMS
25520
ITEM: BOX BOUNDS pp pp pp
-3.5190264893125250e-01 6.0050446238930789e+01
-1.9071861678382120e+00 5.9077471441839407e+01
-1.2568098347475138e+01 1.1184383075347910e+02
ITEM: ATOMS id type xs ys zs
25182 6 0.112734 0.0155366 0.150475
25252 6 0.111265 0.0776224 0.148084
25214 3 0.0427164 0.0383297 0.156883
25287 5 0.0410716 0.0462028 0.175913
25283 5 0.0772122 0.106813 0.169017
25282 5 0.0375253 0.106657 0.176074
25281 4 0.0499499 0.0770445 0.16315
25277 2 0.0522601 0.102196 0.165947
25215 5 0.0786842 0.0452873 0.1678
25209 2 0.0547095 0.0516467 0.16615
25188 1 0.108654 0.0774731 0.169278
25458 9 0.0485559 0.0234753 0.155898
25206 1 0.105363 0.0146735 0.170077
2433 1 0.00987508 0.0152159 0.174572
1949 1 0.00479842 0.0779543 0.17394
25280 5 0.04425 0.118094 0.157383
25219 7 0.102967 0.0208288 0.144611
25293 7 0.121547 0.088476 0.147097
25292 7 0.0959873 0.0844358 0.146598
25290 7 0.0788766 0.128004 0.151771
25220 7 0.127042 0.0213413 0.148252
22735 5 0.135377 0.109262 0.169234
22660 5 0.140409 0.0502158 0.170988
22905 9 0.138128 0.0495053 0.149605
22662 3 0.149635 0.10474 0.15002
22658 3 0.152566 0.0426022 0.151347
22656 2 0.156694 0.0390854 0.163326
20108 5 0.237596 0.111629 0.166881
20112 5 0.234925 0.043461 0.167521
22663 5 0.177268 0.106495 0.164547
22654 1 0.203271 0.0780077 0.167306
22661 5 0.179434 0.0496521 0.165641
22669 7 0.227382 0.0208931 0.14776
22659 4 0.158255 0.0143439 0.166584
22563 1 0.20918 0.0164541 0.169458
22629 6 0.213125 0.0155336 0.148293
22906 9 0.156526 0.0907734 0.14955
22657 2 0.153476 0.115548 0.161563
22740 7 0.211417 0.122253 0.142747
22670 7 0.207624 0.019956 0.14182
20352 9 0.251437 0.0656106 0.146079
20036 3 0.25106 0.0512129 0.149045
20353 9 0.256637 0.112356 0.144229
20106 3 0.250512 0.0992513 0.147563
20107 4 0.257111 0.0776871 0.163732
20031 2 0.255089 0.0522689 0.161662
20104 2 0.257192 0.102086 0.160151
20118 7 0.325539 0.0853364 0.145128
20117 7 0.309357 0.0681062 0.14027
20077 6 0.314174 0.0750138 0.146906
17480 3 0.351641 0.0430333 0.152186
17799 9 0.336114 0.0421046 0.15029
17484 3 0.349068 0.105138 0.14864
17478 2 0.355832 0.0379999 0.164301
20109 5 0.280809 0.111023 0.1618
17482 5 0.336628 0.0493456 0.169838
20037 5 0.278354 0.0452944 0.166066
20011 1 0.308335 0.0777958 0.167881
20028 1 0.303858 0.0147497 0.170913
17481 4 0.354972 0.0130753 0.166271
20003 6 0.299337 0.0214744 0.150091
17560 5 0.336916 0.108161 0.168018
17479 2 0.354293 0.115998 0.159675
17800 9 0.362617 0.0981204 0.146243
17413 7 0.372389 0.0218285 0.142523
20041 7 0.285583 0.0283698 0.153583
20042 7 0.294516 0.0165862 0.143696
17378 6 0.378351 0.00820995 0.140057
17483 5 0.379897 0.0458408 0.16664
17485 5 0.375847 0.108542 0.16525
17490 7 0.428576 0.0724711 0.148494
17489 7 0.406131 0.0678482 0.142873
17451 6 0.412134 0.0782862 0.148065
14856 3 0.44835 0.0401492 0.153507
15246 9 0.460868 0.0343492 0.150015
14929 4 0.45224 0.0765796 0.161201
14926 2 0.456346 0.102001 0.161664
14851 2 0.454341 0.0525107 0.164102
14931 5 0.480652 0.105564 0.165505
14857 5 0.478491 0.0474766 0.167045
17476 1 0.404147 0.0790046 0.168458
14934 5 0.437301 0.0443866 0.172684
14930 5 0.43763 0.110991 0.168958
17384 1 0.408325 0.013587 0.171414
17450 6 0.416003 0.00739108 0.151179
17491 7 0.428224 0.0162791 0.148311
17492 7 0.403829 0.00611595 0.145153
14928 3 0.456967 0.111288 0.149951
15247 9 0.441791 0.114922 0.147637
2104 7 0.0109438 0.181969 0.153307
25291 7 0.0936034 0.136711 0.142605
2032 7 0.0226639 0.145503 0.130029
25284 3 0.00267932 0.139829 0.154435
2033 7 0.0451218 0.160124 0.132631
1995 6 0.0366856 0.145591 0.134953
25253 6 0.0929487 0.13627 0.150302
25275 1 0.100964 0.140334 0.169988
25278 8 0.033002 0.14068 0.150254
22957 9 0.0894299 0.200901 0.146975
22732 3 0.103583 0.201789 0.150516
25285 4 0.0396745 0.161326 0.159983
25359 5 0.0367481 0.176616 0.177946
25356 5 0.0745396 0.232994 0.16789
25354 4 0.0516551 0.2018 0.163265
25351 2 0.0511466 0.226922 0.16454
25286 5 0.0744301 0.170342 0.168982
25279 2 0.0501571 0.177333 0.167809
25259 1 0.103895 0.201824 0.170581
25355 5 0.0352952 0.23416 0.173009
25433 7 0.0578017 0.18815 0.144671
25394 6 0.0558347 0.190691 0.137283
25432 7 0.0490486 0.204248 0.137796
1933 1 0.0079368 0.142239 0.173559
25353 3 0.0465823 0.234829 0.152867
2103 7 0.0162997 0.206168 0.155607
25365 7 0.113846 0.243727 0.15063
2017 1 0.000117069 0.20163 0.174534
1962 7 0.144685 0.18654 0.127308
1927 6 0.140417 0.201601 0.130914
22668 7 0.148846 0.138419 0.135835
22630 6 0.149737 0.154325 0.133988
1963 7 0.147909 0.213753 0.126817
22726 8 0.133382 0.203054 0.1461
22730 5 0.135971 0.169823 0.172127
22667 7 0.150788 0.161309 0.141398
22700 6 0.208252 0.13764 0.146267
22636 1 0.206883 0.139309 0.165884
22729 4 0.153301 0.140877 0.160156
22733 4 0.142943 0.224738 0.153918
20188 7 0.188543 0.191495 0.140387
20189 7 0.186362 0.183794 0.152023
22741 7 0.223055 0.14428 0.146233
20148 6 0.195006 0.194265 0.147365
22728 5 0.145071 0.18141 0.153819
22725 2 0.152422 0.165987 0.162871
20178 5 0.235471 0.234732 0.170133
20183 5 0.237469 0.171143 0.16845
22723 1 0.202306 0.204151 0.166755
22731 5 0.17555 0.174227 0.165851
22734 5 0.174618 0.23319 0.165668
22807 5 0.134727 0.232979 0.173114
22727 2 0.150521 0.238547 0.163738
20176 5 0.246274 0.243054 0.151807
20110 3 0.247022 0.167033 0.148466
22646 5 0.203087 0.141239 0.185638
20103 1 0.234282 0.173407 0.187925
20354 9 0.244751 0.178171 0.143286
20177 4 0.250137 0.203892 0.157954
20173 2 0.253065 0.228733 0.161509
20105 2 0.253981 0.179133 0.159341
17555 4 0.355695 0.141836 0.158111
20102 1 0.303577 0.140362 0.165741
17554 3 0.343542 0.178864 0.149331
17801 9 0.349174 0.173806 0.142895
17558 3 0.346826 0.227836 0.149548
17552 2 0.353684 0.166922 0.159399
17556 5 0.335274 0.171996 0.167531
20111 5 0.27801 0.173119 0.162511
20084 1 0.305879 0.202568 0.167344
17631 5 0.337442 0.235158 0.169174
17802 9 0.346652 0.211985 0.150942
20179 5 0.276578 0.236783 0.164474
17553 2 0.353922 0.240433 0.160272
20091 5 0.301938 0.142149 0.18645
17559 5 0.377893 0.23559 0.164044
17531 1 0.328874 0.170053 0.187371
14938 7 0.468516 0.202696 0.126909
14940 7 0.483246 0.126955 0.147387
14937 7 0.472592 0.183583 0.135128
17557 5 0.377177 0.173473 0.162652
17564 7 0.417579 0.206339 0.142211
17563 7 0.393378 0.202104 0.139179
17566 7 0.406703 0.133415 0.140891
17565 7 0.429115 0.143703 0.145629
17525 6 0.414986 0.135163 0.147494
17459 1 0.405472 0.139515 0.167675
17526 6 0.404178 0.200917 0.144986
14899 6 0.462355 0.196382 0.133615
15248 9 0.448305 0.178845 0.144559
15002 3 0.447937 0.229473 0.147876
14932 3 0.448356 0.167097 0.150285
15000 2 0.456139 0.224947 0.159578
15003 4 0.458494 0.200254 0.161474
14927 2 0.455115 0.175193 0.16158
15005 5 0.479476 0.234147 0.16254
14933 5 0.477393 0.165376 0.163951
15004 5 0.438633 0.234125 0.167168
17550 1 0.402922 0.202261 0.164817
15008 5 0.437201 0.1712 0.169536
14939 7 0.484937 0.14949 0.153939
15249 9 0.455611 0.218681 0.143128
17539 5 0.397161 0.205999 0.186149
14979 1 0.427574 0.232308 0.186525
14898 6 0.494502 0.138294 0.149235
14870 5 0.461486 0.026391 0.248828
25227 3 0.0730567 0.0209746 0.246299
25195 5 0.103449 0.0170398 0.191474
25198 5 0.104844 0.0762825 0.191365
25471 9 0.0769033 0.00768696 0.242319
25268 5 0.0638666 0.074808 0.194477
25258 1 0.0326791 0.107754 0.193592
25207 1 0.038805 0.0484485 0.194417
25191 2 0.085477 0.0843055 0.198358
25263 4 0.0851518 0.109513 0.197981
25197 4 0.0858479 0.0762628 0.210375
25192 5 0.0828453 0.0279201 0.207432
25196 3 0.0454715 0.0494281 0.214413
25190 8 0.075617 0.0498626 0.215821
25510 9 0.0336001 0.0459534 0.219993
22684 7 0.112658 0.0942128 0.230567
25517 7 0.0820056 0.0430466 0.23673
25240 6 0.0894748 0.0506563 0.23013
22685 7 0.0954967 0.0942917 0.220537
25506 7 0.0930988 0.0664925 0.233563
22649 6 0.102464 0.104496 0.225958
25194 5 0.0613412 0.00932068 0.194396
25189 2 0.0844828 0.0114557 0.198557
25201 6 0.0189635 0.0453531 0.242161
25472 9 0.0676523 0.0916874 0.241695
25237 7 0.0198147 0.0289971 0.241975
25310 7 0.07294 0.119413 0.232604
25231 3 0.0724023 0.0786441 0.245386
2441 5 0.00589803 0.018731 0.196038
25308 6 0.0376065 0.0994907 0.213682
25272 7 0.0407508 0.106444 0.220237
25271 7 0.0474927 0.0864483 0.21411
25269 6 0.00945599 0.109489 0.243326
25270 6 0.05746 0.116384 0.23378
25311 7 0.0199768 0.110352 0.237881
2508 9 0.00612991 0.0879873 0.214292
25236 7 0.00891639 0.0496741 0.236656
22717 6 0.121429 0.12409 0.244872
22760 7 0.117653 0.124393 0.236805
25309 7 0.0543374 0.126079 0.239754
15274 9 0.492009 0.157362 0.206841
22687 7 0.119858 0.0111049 0.232248
14991 5 0.45935 0.200695 0.191964
1939 5 0.0019766 0.0785528 0.195101
20062 7 0.133331 0.0581305 0.23022
22572 5 0.20132 0.0190641 0.18944
22643 5 0.201703 0.0814924 0.187756
22650 7 0.131549 0.055658 0.216088
22919 9 0.180867 0.0824103 0.24277
22648 6 0.133473 0.0196985 0.231702
22686 7 0.143471 0.0132003 0.236734
22651 7 0.135477 0.0322453 0.217109
22683 6 0.134007 0.0430588 0.211903
22635 1 0.130749 0.0474474 0.191007
20135 7 0.209994 0.0559584 0.237877
22931 9 0.185246 0.0159208 0.21515
20083 1 0.231261 0.111686 0.1877
22655 1 0.136212 0.110066 0.189661
20029 1 0.235916 0.0501363 0.189426
22642 5 0.161012 0.0730585 0.191201
20063 7 0.184293 0.0736619 0.21852
22637 2 0.184742 0.0742283 0.196159
22641 4 0.189433 0.0496147 0.200262
22565 2 0.185774 0.024503 0.198661
22640 5 0.184028 0.0920974 0.204432
20060 6 0.240423 0.0555393 0.209798
20023 6 0.134505 0.0737219 0.231151
20061 7 0.147157 0.0748693 0.235931
20022 6 0.195279 0.0695539 0.224261
20064 7 0.208342 0.064788 0.22014
22647 5 0.162138 0.0197105 0.194974
20134 7 0.201983 0.0324832 0.240038
20096 6 0.212877 0.043827 0.242784
22571 3 0.193085 0.012315 0.208701
22612 6 0.176281 0.0297187 0.226973
22577 7 0.185811 0.0428789 0.225192
22576 7 0.161691 0.0345551 0.224954
22638 8 0.171683 0.11472 0.211836
22918 9 0.173253 0.0251591 0.241333
22644 3 0.141263 0.113432 0.208685
22965 7 0.166409 0.109283 0.232677
22688 6 0.176139 0.118788 0.227462
22675 3 0.171195 0.0898961 0.24801
20133 7 0.198328 0.113638 0.242676
20097 6 0.212811 0.111366 0.246422
20132 7 0.223585 0.108942 0.240982
20098 7 0.242733 0.11747 0.215413
20131 6 0.237019 0.121921 0.207969
22958 9 0.129319 0.110471 0.214974
20024 7 0.244081 0.0456794 0.21599
20025 7 0.255645 0.0620037 0.207202
22608 3 0.174502 0.0139302 0.24721
17427 4 0.363658 0.00695928 0.248595
17509 7 0.255341 0.00294048 0.224782
20017 5 0.301373 0.0163478 0.191372
20020 5 0.301477 0.0740195 0.188374
17471 6 0.248713 0.0172524 0.224001
20365 9 0.276095 0.00598677 0.239963
20051 3 0.274495 0.0187369 0.244704
20130 6 0.251415 0.114217 0.232779
17510 7 0.249436 0.0205786 0.231671
20366 9 0.264094 0.0949544 0.241293
20016 5 0.260571 0.021003 0.193473
17477 1 0.334327 0.109133 0.189597
17458 1 0.331353 0.0450951 0.19039
20095 5 0.261029 0.082912 0.191682
17464 5 0.357854 0.0823935 0.192619
20013 2 0.284242 0.0840942 0.195799
20379 9 0.290614 0.0586183 0.206833
20089 4 0.288138 0.109723 0.197754
20019 3 0.285652 0.0734847 0.207433
20378 9 0.271517 0.0272562 0.214478
17466 6 0.323438 0.0475168 0.210271
17493 7 0.308713 0.0442783 0.213347
17494 7 0.328413 0.0593789 0.215233
17473 7 0.340586 0.117376 0.217268
14960 7 0.358408 0.0816143 0.218182
17548 7 0.292554 0.0960838 0.221677
14918 6 0.346812 0.0772946 0.223099
14959 7 0.354944 0.0754321 0.229814
17469 5 0.362958 0.0147432 0.195949
17456 7 0.297217 0.0384434 0.240367
17457 7 0.293197 0.0635903 0.243347
20014 3 0.285344 0.0273239 0.210384
20012 2 0.282163 0.0124272 0.199329
17503 6 0.305119 0.0526071 0.242596
17499 3 0.372356 0.08424 0.242981
17582 7 0.332558 0.0958225 0.237662
20056 3 0.270749 0.0854514 0.246689
17583 7 0.311356 0.107604 0.234585
17544 6 0.321878 0.106142 0.240263
17508 6 0.335051 0.121496 0.210333
17578 6 0.292581 0.111313 0.222649
20101 7 0.263483 0.112586 0.227571
17472 7 0.319894 0.115266 0.210463
17475 7 0.316026 0.00323167 0.215522
17465 5 0.398851 0.0819284 0.189879
17813 9 0.383698 0.0952271 0.243467
17463 4 0.381064 0.0503653 0.19765
17460 2 0.380066 0.0748707 0.19729
17462 3 0.383361 0.0850951 0.208801
17386 2 0.384307 0.0247734 0.200156
17825 9 0.396935 0.00562915 0.21233
17391 3 0.389739 0.0199514 0.212144
14906 1 0.428789 0.108934 0.189096
17392 5 0.400351 0.0147545 0.191715
17826 9 0.394657 0.0968373 0.208488
14849 1 0.432173 0.0466075 0.193031
14917 5 0.457263 0.0755323 0.194285
14837 5 0.45866 0.0177859 0.196539
14911 4 0.477305 0.108314 0.198932
14834 2 0.479967 0.0832098 0.197782
14839 3 0.48917 0.072431 0.208427
14955 6 0.427624 0.0455744 0.214327
15273 9 0.489019 0.0825839 0.214356
14922 7 0.440927 0.0421956 0.21873
14923 7 0.417104 0.0352363 0.216438
15308 7 0.470562 0.0565311 0.220569
14884 6 0.469937 0.0451672 0.226783
15297 7 0.466405 0.0291878 0.222923
15303 9 0.414979 0.0633084 0.240739
14868 8 0.455712 0.0493603 0.240205
14835 3 0.489611 0.0150993 0.211217
14874 3 0.425511 0.0522604 0.244734
14833 2 0.480559 0.008738 0.199443
12328 7 0.451341 0.100117 0.234482
14951 6 0.409197 0.11518 0.242241
14942 7 0.433125 0.113914 0.214934
12291 6 0.44548 0.111803 0.230019
14914 6 0.422174 0.113348 0.209258
14904 7 0.423666 0.116408 0.237602
14875 4 0.466817 0.0717207 0.247767
14941 7 0.410633 0.124685 0.21168
12329 7 0.451719 0.125018 0.233272
12366 6 0.489632 0.106243 0.223463
12408 7 0.478007 0.109917 0.228524
12407 7 0.485088 0.115566 0.217633
2065 6 0.00397974 0.196013 0.153914
14840 5 0.499679 0.0785714 0.190083
17533 2 0.379444 0.197074 0.193484
22960 9 0.113971 0.238272 0.235446
25343 6 0.00817615 0.241169 0.239041
22791 6 0.066423 0.236042 0.225897
25267 5 0.100085 0.203208 0.19189
25265 5 0.100891 0.143925 0.191394
25348 7 0.0145099 0.160061 0.214739
25484 9 0.0931677 0.126322 0.215151
25347 7 0.0241738 0.169144 0.225171
25512 9 0.0144927 0.17176 0.239787
25303 3 0.0271804 0.174616 0.245582
25260 2 0.0839583 0.134702 0.199391
25264 5 0.0606561 0.141976 0.197428
25332 1 0.0271501 0.234153 0.194697
25276 1 0.0347318 0.170725 0.197185
25342 5 0.0579638 0.200634 0.197547
25337 4 0.0825376 0.233012 0.198979
25261 2 0.0822076 0.208256 0.200056
25266 3 0.0866834 0.202538 0.212144
25262 3 0.0931099 0.139675 0.211041
25485 9 0.0850081 0.215913 0.216559
22720 7 0.123575 0.149084 0.213508
25377 6 0.0294443 0.165741 0.217654
25507 7 0.0777511 0.182434 0.22377
25518 7 0.0684334 0.157902 0.222911
25314 6 0.0744486 0.168972 0.228733
25297 8 0.0575593 0.172539 0.241746
22757 7 0.106291 0.176318 0.237257
22718 6 0.11444 0.176964 0.243767
25304 4 0.0671027 0.196003 0.248119
25378 6 0.0206523 0.23601 0.216454
22830 7 0.0517723 0.235984 0.222429
25381 7 0.0132278 0.240958 0.231768
25345 7 0.00850391 0.22744 0.217022
22796 7 0.115995 0.244957 0.215318
22829 7 0.0640318 0.240859 0.233182
17467 3 0.384612 0.138308 0.207326
22713 5 0.200066 0.208892 0.189542
20099 7 0.250329 0.130457 0.205379
22795 7 0.139558 0.245326 0.218915
22751 3 0.126434 0.239778 0.241186
22716 5 0.163231 0.137736 0.189634
22758 7 0.130154 0.181 0.241486
22747 5 0.161928 0.214106 0.246468
22759 7 0.135887 0.131336 0.245552
22825 6 0.130051 0.23874 0.213049
20207 7 0.205123 0.231436 0.237422
20208 7 0.228574 0.23265 0.235395
22920 9 0.169306 0.122975 0.248945
22954 7 0.174881 0.134927 0.23022
22756 6 0.129843 0.163912 0.211311
22706 1 0.130175 0.172372 0.191298
22719 7 0.138891 0.165598 0.217252
20154 1 0.227555 0.234446 0.189299
22724 1 0.133069 0.235307 0.192404
22722 7 0.163477 0.192526 0.234707
22645 4 0.182906 0.137514 0.204137
22712 5 0.158401 0.205661 0.193746
22639 2 0.184994 0.148299 0.193411
22708 2 0.182121 0.199227 0.1962
22711 4 0.183477 0.174539 0.193634
22710 3 0.186741 0.202346 0.208257
22932 9 0.190634 0.187742 0.211553
20167 7 0.212611 0.219492 0.209726
20204 6 0.224267 0.231353 0.209501
20092 3 0.238348 0.174188 0.207861
22721 7 0.160211 0.166533 0.23625
20406 9 0.225888 0.17224 0.213212
22966 7 0.177089 0.222932 0.221966
22745 8 0.157034 0.23842 0.238706
20166 6 0.195796 0.167268 0.220343
20206 7 0.181751 0.17317 0.224221
22755 6 0.159372 0.17851 0.230906
20205 7 0.191296 0.154161 0.216528
22762 6 0.17789 0.237376 0.226787
20165 6 0.2189 0.236248 0.240802
22679 3 0.166553 0.137984 0.247368
1941 5 0.00257264 0.138398 0.194295
20169 7 0.24961 0.228069 0.221983
20100 7 0.25613 0.12331 0.238517
20094 5 0.299628 0.203667 0.184737
17551 1 0.332156 0.233893 0.187867
17827 9 0.369897 0.132335 0.209657
17549 7 0.290557 0.114729 0.215256
17854 9 0.322916 0.234577 0.213309
20170 7 0.268465 0.219983 0.215281
17538 5 0.358274 0.198482 0.187396
17545 6 0.329676 0.241894 0.240406
20164 5 0.258542 0.204633 0.189211
20090 5 0.26185 0.135577 0.188423
20203 6 0.264869 0.224561 0.222426
20368 9 0.269321 0.209663 0.237415
17543 5 0.359664 0.141494 0.190954
20085 2 0.283747 0.133782 0.193976
20086 8 0.269228 0.172137 0.210823
20087 2 0.28165 0.209683 0.193204
20159 4 0.282188 0.233416 0.19713
20088 5 0.279473 0.149578 0.203216
20093 4 0.27954 0.194997 0.203079
17547 7 0.331196 0.156209 0.20995
17540 3 0.33574 0.231713 0.208061
17579 6 0.327057 0.171082 0.208333
17546 7 0.31585 0.172772 0.214538
20136 6 0.280058 0.170507 0.225065
20413 7 0.280192 0.182177 0.230681
20402 7 0.276725 0.155051 0.229528
20127 3 0.268046 0.199265 0.243834
17580 7 0.34086 0.228715 0.23997
20123 3 0.267216 0.152173 0.245003
17617 7 0.288225 0.241905 0.22479
17534 8 0.365754 0.234275 0.210299
20367 9 0.264594 0.167926 0.244934
17571 3 0.367962 0.207662 0.243814
17651 6 0.301558 0.250478 0.223942
17850 7 0.375048 0.22584 0.230644
15026 6 0.384797 0.179613 0.219935
17618 7 0.308483 0.252345 0.230986
14920 7 0.439635 0.173623 0.218642
14915 3 0.487725 0.198346 0.205787
14909 2 0.482391 0.2094 0.194397
17468 5 0.399338 0.139471 0.187737
14996 7 0.387114 0.164063 0.22113
14992 6 0.413112 0.237931 0.242133
14913 5 0.498391 0.137646 0.188832
14925 1 0.435526 0.173041 0.18954
17584 6 0.378822 0.237255 0.224334
17814 9 0.38185 0.154782 0.241669
17504 3 0.375067 0.142961 0.245825
17815 9 0.381089 0.199615 0.241645
14905 7 0.403593 0.129716 0.241659
14956 6 0.442263 0.172955 0.210892
15031 7 0.401503 0.249671 0.241781
14995 7 0.432353 0.211677 0.210365
15027 6 0.427699 0.224808 0.207316
14912 5 0.458931 0.139844 0.190028
14994 7 0.412116 0.223471 0.208734
15030 7 0.408143 0.229756 0.235865
14919 6 0.414355 0.179181 0.239852
15261 9 0.476945 0.155986 0.24094
17537 4 0.385313 0.173354 0.196831
17536 5 0.375964 0.212054 0.202403
14952 3 0.478978 0.206145 0.247412
14947 3 0.464895 0.14592 0.241541
15262 9 0.487727 0.217935 0.243723
14908 2 0.478966 0.133053 0.196552
14985 4 0.483489 0.234763 0.194373
15275 9 0.475211 0.191043 0.208131
14997 7 0.38385 0.180313 0.212349
17461 2 0.382086 0.14743 0.195839
14910 3 0.481229 0.146391 0.207437
14957 7 0.428468 0.18517 0.237862
14921 7 0.455697 0.163655 0.210618
14958 7 0.406889 0.181507 0.233413
14838 5 0.498719 0.017363 0.192076
20168 7 0.214112 0.243753 0.210432
14847 7 0.453236 0.00228681 0.238642
15011 7 0.498664 0.210142 0.142881
25312 7 -0.00361846 0.118461 0.240254
22739 7 0.148345 0.247464 0.139544
17637 7 0.426447 0.251801 0.145636
17860 7 0.369708 -0.000396645 0.222248
15272 9 0.490156 0.00146567 0.215107
25178 3 0.0339126 0.0480085 0.301955
25245 3 0.0358073 0.109988 0.303684
25251 5 0.0212633 0.0498009 0.283956
25246 4 0.0445708 0.0823373 0.291175
25243 2 0.0413023 0.106835 0.291479
25224 1 0.093581 0.0824743 0.287423
25179 5 0.0631614 0.0485362 0.287425
25173 2 0.0405559 0.0566219 0.290678
25170 1 0.0887588 0.0213563 0.286486
25232 5 0.0884166 0.0776837 0.266051
25230 5 0.0845296 0.022124 0.266206
22671 1 0.117252 0.04999 0.264831
25171 1 0.0215442 0.0517385 0.26154
25229 5 0.0451436 0.0226209 0.260847
25294 1 0.0153283 0.111798 0.263925
25306 5 0.0476468 0.0807544 0.262192
25226 2 0.0706045 0.0849526 0.258124
25225 2 0.0681202 0.0131325 0.258244
25496 9 0.0464889 0.0416635 0.305602
25288 6 0.101189 0.0783636 0.307554
25218 6 0.0916639 0.0290614 0.307187
25497 9 0.0214887 0.102496 0.305381
22619 1 0.121446 0.113906 0.264585
25300 4 0.0719765 0.110585 0.257097
25257 7 0.10525 0.0923109 0.310673
25256 7 0.114232 0.0682794 0.308707
25247 5 0.0221093 0.114866 0.284238
25248 5 0.0633063 0.116502 0.28891
25495 9 0.036745 0.0113567 0.304803
25184 7 0.10813 0.0283277 0.30605
22699 5 0.123711 0.113293 0.284196
22624 5 0.121759 0.053518 0.287415
1929 7 0.00770098 0.0666371 0.305419
1931 7 0.00415787 0.00529721 0.307332
25183 7 0.0904961 0.0440662 0.308566
14258 5 0.48824 0.147402 0.465887
22622 3 0.137877 0.0491719 0.30605
22623 4 0.138087 0.0196884 0.292734
22681 5 0.145338 0.0239007 0.260398
22620 2 0.141497 0.0450163 0.29353
19999 4 0.230526 0.0411845 0.298824
19993 2 0.238496 0.0582243 0.290571
20068 2 0.239999 0.107995 0.29295
20071 4 0.234387 0.0826017 0.293714
22625 5 0.163939 0.053328 0.290174
22627 5 0.162946 0.11094 0.289993
22618 1 0.186449 0.0820324 0.287045
20076 5 0.22244 0.0527706 0.281824
22600 1 0.194524 0.0193842 0.286695
22609 5 0.185237 0.018332 0.267488
22678 5 0.186564 0.0811585 0.267421
19990 1 0.21986 0.0493164 0.263346
22677 5 0.146395 0.0802431 0.262163
20129 5 0.243205 0.0805363 0.261017
20053 5 0.243419 0.0154397 0.25999
22602 2 0.16957 0.0267868 0.258117
22673 2 0.170443 0.0770401 0.258662
22676 4 0.173149 0.0517809 0.256558
19998 3 0.196486 0.0152208 0.30634
19992 8 0.226796 0.0185093 0.30817
20119 1 0.216648 0.116056 0.265449
22943 9 0.15148 0.0460274 0.309696
20072 5 0.222988 0.114094 0.284837
20391 9 0.239164 0.110189 0.309948
22626 3 0.138194 0.111956 0.304189
22621 2 0.140813 0.121107 0.292342
20409 9 0.184909 0.0117936 0.312403
20070 3 0.237299 0.120286 0.304054
22944 9 0.151614 0.107353 0.306901
20000 5 0.262167 0.0512634 0.286821
17448 5 0.362735 0.11056 0.28352
17440 8 0.324617 0.0805843 0.306196
17446 3 0.294985 0.0884893 0.30347
17442 5 0.331946 0.0585891 0.297699
17447 4 0.330969 0.102724 0.296624
17443 4 0.337488 0.0191808 0.291313
17439 2 0.336748 0.0436902 0.288226
20048 1 0.293182 0.083597 0.284071
19989 1 0.284462 0.0189712 0.284849
17445 5 0.360562 0.049547 0.285379
17444 5 0.318952 0.0485477 0.279503
20057 5 0.284713 0.0842077 0.2654
17495 1 0.313188 0.0491663 0.26249
17506 5 0.343705 0.0210983 0.261851
20054 5 0.282721 0.0194956 0.264395
17438 1 0.321404 0.112866 0.260041
17501 5 0.343574 0.0802086 0.25783
17421 2 0.366095 0.0244603 0.256992
20050 2 0.265047 0.0920521 0.258122
20049 2 0.266671 0.010404 0.256046
17497 2 0.368112 0.07404 0.254126
20040 6 0.297864 0.0174926 0.303905
17500 4 0.370456 0.0482612 0.253321
20073 5 0.26323 0.111344 0.288523
20124 4 0.26396 0.116984 0.257438
17857 9 0.287466 0.101856 0.306607
17524 5 0.321566 0.116834 0.279593
20004 7 0.31044 0.0269909 0.301729
17441 2 0.339627 0.118157 0.28794
20005 7 0.307043 0.00461928 0.305613
17502 5 0.384427 0.0826827 0.262292
17428 5 0.384673 0.018689 0.265381
17437 1 0.384976 0.0791055 0.283586
15286 9 0.426506 0.0349471 0.302383
14822 3 0.436746 0.0475583 0.302685
14891 4 0.439756 0.0822347 0.292212
14817 2 0.44055 0.0566947 0.29128
14887 2 0.438153 0.106747 0.28861
14823 5 0.462564 0.0474683 0.287357
17418 1 0.39207 0.0175417 0.285119
14893 5 0.460825 0.115639 0.284827
14897 5 0.422356 0.0512122 0.28327
14892 5 0.419119 0.107422 0.280529
14866 1 0.490833 0.0828707 0.285509
14814 1 0.484508 0.0172212 0.284743
14873 5 0.482832 0.0171706 0.265842
14876 5 0.484532 0.0813327 0.265641
14815 1 0.418838 0.0489258 0.26344
14943 1 0.414306 0.111037 0.263215
14954 5 0.445245 0.0833543 0.261958
17412 6 0.398771 0.0152123 0.305102
14869 2 0.467664 0.0870491 0.257292
14872 5 0.441446 0.0105207 0.262607
14867 2 0.46532 0.0103477 0.257608
1403 4 0.000962542 0.149813 0.434204
14948 4 0.470101 0.111354 0.253692
17379 7 0.387433 0.0162249 0.311005
14860 6 0.493768 0.0822613 0.305763
14890 5 0.430547 0.122035 0.297441
14827 7 0.488069 0.0804324 0.312691
1825 7 0.00541187 0.0228137 0.337706
25296 2 0.0658107 0.134797 0.260208
25241 1 0.0860706 0.147142 0.287937
25249 3 0.0344677 0.184635 0.303523
25360 6 0.0947448 0.21196 0.304757
25320 4 0.0381692 0.212567 0.290278
25317 2 0.0384952 0.237617 0.288785
25295 1 0.0904996 0.208852 0.284064
25250 5 0.0603911 0.178097 0.287832
25244 2 0.0388517 0.187943 0.291397
25325 5 0.0226345 0.178303 0.28343
25302 5 0.0828126 0.141719 0.268884
25305 5 0.0836865 0.209395 0.265565
22742 1 0.111929 0.174475 0.264721
25301 5 0.0420173 0.133073 0.263297
25242 1 0.0203271 0.175621 0.26359
25376 5 0.0443814 0.20985 0.260665
25298 2 0.067551 0.214239 0.25669
25289 6 0.0851732 0.152127 0.309103
25366 1 0.0144302 0.238244 0.259614
25331 7 0.105832 0.223382 0.304673
25498 9 0.0406598 0.196503 0.308051
25371 4 0.0695941 0.238589 0.25223
22690 1 0.11866 0.238096 0.260146
22773 5 0.122032 0.237922 0.280207
25322 5 0.0614417 0.243905 0.284802
25330 7 0.0813015 0.216985 0.308124
25255 7 0.0721816 0.161547 0.309755
25321 5 0.0189203 0.245223 0.282122
24709 7 0.000562277 0.226751 0.399187
22945 9 0.122627 0.186429 0.303444
25299 5 0.0654127 0.150443 0.250638
22695 5 0.121778 0.175511 0.284038
1996 7 0.050403 0.231566 0.310663
22697 3 0.131992 0.239982 0.299914
22693 3 0.138231 0.181992 0.302427
22694 4 0.141638 0.1458 0.292172
22691 2 0.141359 0.171114 0.291285
22748 4 0.169024 0.176146 0.255263
22674 2 0.166929 0.150996 0.258303
22754 5 0.144857 0.144977 0.263212
20202 5 0.24495 0.209459 0.259249
22672 1 0.19217 0.146288 0.286527
20142 4 0.23946 0.209778 0.286923
20147 5 0.221329 0.176381 0.283475
22696 5 0.163479 0.179389 0.286669
20074 3 0.238151 0.183031 0.301945
20069 2 0.241134 0.184753 0.289202
22689 1 0.187831 0.21015 0.284758
20392 9 0.231576 0.168525 0.303061
20139 2 0.239108 0.234606 0.289214
20067 1 0.218716 0.179148 0.262251
22680 5 0.185173 0.145201 0.266399
22750 5 0.185611 0.210018 0.263134
22749 5 0.143729 0.205464 0.26203
20125 5 0.244077 0.151183 0.261468
22744 2 0.165635 0.201405 0.256882
22737 6 0.194685 0.206282 0.304792
22736 6 0.200977 0.151055 0.30606
20393 9 0.225754 0.22255 0.304338
22698 5 0.16206 0.240768 0.285433
20190 1 0.21393 0.240282 0.261618
20141 3 0.233581 0.236081 0.301785
20143 5 0.218742 0.244522 0.282861
22703 7 0.202296 0.194019 0.308389
22702 7 0.179225 0.203107 0.30639
22692 2 0.138791 0.245917 0.288533
22704 7 0.212669 0.140324 0.30613
20144 5 0.262444 0.243437 0.285972
17572 4 0.363524 0.17793 0.256469
20126 5 0.283094 0.150085 0.263912
20075 5 0.265005 0.174785 0.287107
20066 1 0.288015 0.144643 0.284748
17516 2 0.34026 0.167871 0.291462
17518 3 0.338719 0.179089 0.302314
20079 7 0.315308 0.201768 0.305183
20114 6 0.299638 0.206785 0.304333
17519 4 0.338674 0.142953 0.291883
17521 5 0.362691 0.1755 0.287702
20120 1 0.292067 0.210148 0.283875
17520 5 0.321655 0.178223 0.283578
17595 5 0.316875 0.239229 0.283176
17567 1 0.313111 0.177648 0.263909
20128 5 0.285143 0.207265 0.26259
17577 5 0.342443 0.145492 0.259232
17573 5 0.341303 0.211238 0.259736
17498 2 0.367148 0.152982 0.25708
20121 2 0.265136 0.14233 0.256377
17569 2 0.364413 0.202811 0.256327
20122 2 0.266725 0.213582 0.254376
20196 4 0.270697 0.238545 0.252392
20113 6 0.288613 0.142495 0.305894
17839 9 0.338534 0.168388 0.308352
17529 7 0.3626 0.220369 0.304763
17530 7 0.368284 0.197893 0.300891
17523 5 0.358406 0.238204 0.283446
17515 1 0.317524 0.241358 0.260293
20081 7 0.273715 0.136363 0.306976
17522 3 0.336487 0.242227 0.300442
17517 2 0.337344 0.24758 0.288571
20080 7 0.291323 0.196025 0.308158
17840 9 0.325015 0.23258 0.302912
20082 7 0.293486 0.147368 0.312994
22102 7 0.258171 0.186178 0.31328
17561 6 0.375272 0.210072 0.304479
15020 4 0.461536 0.240099 0.256144
17505 5 0.384182 0.144462 0.264895
17574 5 0.382758 0.20995 0.26365
17514 1 0.385879 0.209404 0.28386
14945 2 0.46522 0.136884 0.253375
14886 1 0.420063 0.17481 0.260489
14894 3 0.395289 0.143321 0.302746
14972 5 0.42119 0.177985 0.277683
14896 5 0.46145 0.174756 0.284559
14888 8 0.425633 0.145764 0.305258
12342 3 0.493651 0.206604 0.304643
14895 4 0.429373 0.165835 0.295758
14964 2 0.437841 0.231216 0.290082
14967 4 0.434986 0.206329 0.289289
14889 2 0.437121 0.181998 0.28689
17496 1 0.392006 0.145054 0.283872
14944 1 0.491277 0.209581 0.285492
14885 1 0.48616 0.145735 0.28165
14953 5 0.48299 0.211975 0.265913
14936 6 0.48668 0.14482 0.301914
14950 5 0.482046 0.148878 0.261181
15025 5 0.443153 0.205699 0.258681
14949 5 0.442449 0.141746 0.258178
14946 2 0.466073 0.215258 0.2573
14969 5 0.461157 0.239374 0.288701
15015 1 0.413921 0.238978 0.262667
15305 9 0.38324 0.139107 0.308371
14968 5 0.420876 0.242232 0.282286
12753 9 0.484615 0.214094 0.31031
14900 7 0.476235 0.15011 0.307175
14966 3 0.430774 0.237283 0.30215
15287 9 0.417403 0.245499 0.301957
14314 3 0.497036 0.174637 0.425793
24544 6 0.0965799 0.0220192 0.334485
24654 7 0.0833706 0.0966759 0.328767
24655 7 0.0928421 0.0738705 0.326261
24614 6 0.0860416 0.0827478 0.332358
24820 9 0.0395147 0.0495152 0.334022
24550 1 0.0884952 0.0847454 0.353479
24571 2 0.0342601 0.0572666 0.350156
24576 3 0.0317402 0.0423795 0.340156
24577 5 0.0583635 0.0549733 0.354186
24639 2 0.0347962 0.10779 0.349626
24643 4 0.0320084 0.0826585 0.34753
24644 5 0.0190247 0.113389 0.358615
24645 5 0.0585831 0.114948 0.352617
24649 5 0.0174738 0.0510407 0.359122
24568 1 0.0853761 0.0242152 0.354835
22022 5 0.118862 0.0562308 0.356038
22097 5 0.119925 0.112069 0.35461
24582 7 0.109121 0.0280657 0.330954
24581 7 0.087535 0.0180798 0.328473
14251 2 0.463967 0.156194 0.46748
24819 9 0.0367305 0.00853749 0.339048
24560 5 0.0871199 0.083835 0.375002
22017 1 0.120226 0.112911 0.375363
22267 9 0.134853 0.0731731 0.337074
22665 6 0.167613 0.0564002 0.322163
22634 7 0.154638 0.063482 0.324834
22268 9 0.135182 0.114398 0.330861
22020 3 0.137442 0.0575251 0.337475
22024 3 0.134085 0.104547 0.336787
22032 7 0.20557 0.0373933 0.335942
22021 4 0.137253 0.0243776 0.349835
20065 6 0.247279 0.0237271 0.319712
22631 7 0.184088 0.0736853 0.32825
22632 7 0.202062 0.0915638 0.33076
19714 9 0.223299 0.0679278 0.335701
22666 6 0.191933 0.0822739 0.3343
19468 3 0.232617 0.105887 0.336105
19398 3 0.235447 0.0566492 0.33667
19466 2 0.240041 0.107311 0.347828