ITEM: TIMESTEP
595000
ITEM: NUMBER OF ATOMS
25520
ITEM: BOX BOUNDS pp pp pp
-3.9054447705757672e-01 6.0089088067058412e+01
-1.9462005224300944e+00 5.9116485796428940e+01
-1.2647689695654005e+01 1.1192342210166170e+02
ITEM: ATOMS id type xs ys zs
25182 6 0.089872 0.0308938 0.153299
25252 6 0.10344 0.0835545 0.152048
25214 3 0.0409006 0.0479031 0.156919
25287 5 0.029814 0.0530959 0.175747
25283 5 0.0702857 0.117857 0.172488
25282 5 0.0296486 0.115602 0.177115
25281 4 0.0471684 0.0848579 0.165567
25277 2 0.047372 0.109974 0.169119
25215 5 0.0696472 0.0516691 0.171023
25209 2 0.0474992 0.0591425 0.167805
25188 1 0.0994734 0.0829148 0.17294
25458 9 0.0281327 0.0544478 0.153194
25206 1 0.0952984 0.0238414 0.172581
25292 7 0.114736 0.0703679 0.150784
25293 7 0.112859 0.0971408 0.151453
25219 7 0.0914566 0.0429938 0.148277
25220 7 0.0742919 0.0359174 0.156063
2433 1 0.000567295 0.0206211 0.176437
22735 5 0.1312 0.114728 0.17581
22660 5 0.131214 0.0556604 0.172834
22905 9 0.148358 0.0383896 0.148548
22662 3 0.138186 0.11457 0.155802
22658 3 0.143276 0.0509223 0.153195
22656 2 0.148064 0.0461099 0.165278
20112 5 0.231538 0.0504889 0.174844
22663 5 0.170463 0.118561 0.169109
22654 1 0.195344 0.084901 0.172583
22661 5 0.1705 0.0558438 0.16771
22659 4 0.149722 0.0221698 0.16846
22563 1 0.20169 0.0226422 0.174587
22629 6 0.202534 0.0313501 0.154397
22630 6 0.181991 0.0874417 0.153204
22667 7 0.171153 0.077034 0.156586
22668 7 0.174017 0.101853 0.15423
20108 5 0.230477 0.116723 0.173421
22670 7 0.189665 0.0396726 0.15249
22669 7 0.215122 0.0414419 0.15349
20106 3 0.243042 0.10962 0.154232
20036 3 0.247054 0.0462241 0.155907
20104 2 0.24781 0.107053 0.166444
20031 2 0.249821 0.057418 0.167626
22518 7 0.255947 0.00282068 0.14254
20353 9 0.245788 0.0969667 0.150406
22517 7 0.259028 0.0273921 0.141451
20107 4 0.249441 0.0829899 0.168938
20352 9 0.25948 0.0357351 0.155461
20118 7 0.31596 0.0703106 0.152507
20117 7 0.314813 0.0948775 0.150948
20077 6 0.305484 0.081552 0.152059
17480 3 0.346221 0.0535012 0.154719
17799 9 0.36031 0.0515284 0.151469
17478 2 0.347008 0.0472773 0.167123
20109 5 0.270593 0.116956 0.167874
17482 5 0.32902 0.056382 0.175156
20037 5 0.27233 0.0491966 0.171425
20011 1 0.300312 0.0863255 0.172775
20028 1 0.296353 0.0229558 0.173939
17481 4 0.345789 0.0216712 0.167559
17484 3 0.337618 0.113835 0.154566
20003 6 0.28981 0.0139037 0.154547
17485 5 0.371539 0.117294 0.16863
20042 7 0.285895 0.0105062 0.146552
22482 6 0.262191 0.013804 0.138277
17800 9 0.342981 0.121832 0.14843
17560 5 0.330064 0.119128 0.17381
17483 5 0.369924 0.0545496 0.171185
20041 7 0.279828 0.0037965 0.158615
17479 2 0.348285 0.123556 0.165268
17489 7 0.414074 0.070674 0.149941
17490 7 0.418549 0.0921127 0.152163
17451 6 0.405607 0.083566 0.152354
14856 3 0.440361 0.0465957 0.157494
15246 9 0.45006 0.0346467 0.156425
14929 4 0.44513 0.0851755 0.164835
14926 2 0.448051 0.110243 0.167133
14851 2 0.447777 0.0606444 0.167395
14931 5 0.471448 0.115181 0.171517
14857 5 0.471154 0.0572136 0.171349
17476 1 0.395965 0.0841473 0.172398
14934 5 0.431706 0.0515827 0.17581
14930 5 0.429061 0.116177 0.174551
17384 1 0.400855 0.0202747 0.174925
17450 6 0.406059 0.0174946 0.155508
17492 7 0.415021 0.0287432 0.152821
14848 1 0.495763 0.0211168 0.176239
17491 7 0.415793 0.00416749 0.15527
14928 3 0.444763 0.123997 0.15632
14826 6 0.500361 0.0278026 0.155867
14862 7 0.503124 0.0143744 0.151301
25280 5 0.0412858 0.126512 0.160079
25290 7 0.111087 0.168251 0.15706
2033 7 0.0461058 0.137271 0.135092
25253 6 0.100173 0.15554 0.155286
2032 7 0.0507328 0.162768 0.135861
1995 6 0.038275 0.151771 0.138023
25275 1 0.0937884 0.148411 0.174914
25278 8 0.0311583 0.149396 0.153509
22957 9 0.0939077 0.232107 0.155838
22732 3 0.101558 0.217009 0.155405
25285 4 0.0399019 0.170994 0.161794
25359 5 0.028032 0.180143 0.18045
25356 5 0.0693758 0.242595 0.171356
25354 4 0.0448305 0.209787 0.169796
25351 2 0.0461376 0.235248 0.16893
25286 5 0.0692611 0.175766 0.175415
25279 2 0.0460474 0.184162 0.171832
25259 1 0.0990901 0.211924 0.174452
25355 5 0.0275778 0.243833 0.176088
25394 6 0.0769823 0.18377 0.143921
25291 7 0.092226 0.158477 0.148784
25432 7 0.0644231 0.185581 0.148568
25433 7 0.0878991 0.192827 0.147658
2104 7 0.00348347 0.186732 0.156225
25459 9 0.0426532 0.232007 0.152463
14912 5 0.45063 0.148962 0.197675
22920 9 0.182264 0.144434 0.249056
25284 3 0.00167707 0.147967 0.158168
25353 3 0.0427513 0.245125 0.156883
22657 2 0.145546 0.123975 0.166789
1962 7 0.120251 0.20829 0.132464
22906 9 0.135434 0.126509 0.151033
22741 7 0.22152 0.13341 0.151633
22726 8 0.13171 0.212653 0.152676
1963 7 0.146959 0.198214 0.134338
22740 7 0.218226 0.158115 0.152605
1927 6 0.135671 0.209956 0.137303
22730 5 0.129993 0.180436 0.177665
22700 6 0.20948 0.143991 0.152235
22636 1 0.19926 0.14756 0.172163
22729 4 0.143797 0.149392 0.166505
22733 4 0.140205 0.234695 0.160564
20188 7 0.184353 0.220799 0.149751
20189 7 0.204135 0.231752 0.153746
20148 6 0.196927 0.21678 0.153924
22728 5 0.139344 0.188396 0.159342
22725 2 0.14704 0.174326 0.16915
20178 5 0.229045 0.240736 0.176808
20183 5 0.230465 0.179224 0.174456
22723 1 0.194894 0.211522 0.174427
22731 5 0.170149 0.181417 0.171111
20110 3 0.237517 0.177953 0.154675
20173 2 0.246842 0.237868 0.168435
20105 2 0.245184 0.187808 0.165752
20177 4 0.245322 0.21391 0.165038
20354 9 0.230797 0.189029 0.150546
22734 5 0.16903 0.24684 0.173971
22807 5 0.130125 0.243925 0.178259
17555 4 0.345824 0.149159 0.163348
20102 1 0.293654 0.1486 0.172038
17554 3 0.341561 0.185469 0.154681
17801 9 0.340006 0.200379 0.155824
17558 3 0.336133 0.234952 0.157062
17552 2 0.346636 0.173571 0.166109
17556 5 0.324975 0.179218 0.171903
20111 5 0.269295 0.180293 0.168904
20084 1 0.298656 0.210536 0.173431
20179 5 0.271237 0.241165 0.170824
17631 5 0.330291 0.241822 0.175851
17557 5 0.369166 0.177716 0.170617
17559 5 0.370029 0.239209 0.16917
17553 2 0.347508 0.24722 0.166421
17802 9 0.341007 0.240296 0.150369
15247 9 0.458955 0.128665 0.153891
14898 6 0.494884 0.151105 0.153349
17563 7 0.414438 0.210733 0.148961
17564 7 0.392464 0.213874 0.143472
17565 7 0.414447 0.138659 0.149845
17566 7 0.390486 0.145027 0.146463
14938 7 0.477965 0.210299 0.144168
14937 7 0.457071 0.198354 0.145872
17525 6 0.402804 0.148533 0.151627
17459 1 0.400343 0.146077 0.173231
17526 6 0.39868 0.205649 0.149446
14899 6 0.462907 0.210225 0.141433
15248 9 0.433623 0.162291 0.154864
15002 3 0.44529 0.241926 0.152729
14932 3 0.446164 0.173162 0.154372
15000 2 0.447344 0.232538 0.164758
15003 4 0.447083 0.207128 0.163675
14927 2 0.448886 0.182396 0.166194
15005 5 0.469779 0.236913 0.168972
14933 5 0.472647 0.176678 0.169083
15004 5 0.429931 0.239427 0.172374
17550 1 0.395333 0.206716 0.170246
15008 5 0.431306 0.176807 0.175073
15249 9 0.453518 0.231421 0.147899
14940 7 0.482513 0.159542 0.155721
14924 1 0.496125 0.145689 0.17453
25237 7 0.0244613 0.0622682 0.238408
25235 6 0.0831974 -0.00222125 0.229579
22686 7 0.0986894 0.0430924 0.243606
25236 7 0.0315942 0.0395636 0.243101
25227 3 0.0613869 0.0259208 0.248165
25238 7 0.00226645 0.00142937 0.241284
25471 9 0.0671539 0.014851 0.243503
25198 5 0.093899 0.0836126 0.191917
25195 5 0.0934753 0.0210502 0.192092
25268 5 0.0538106 0.0824342 0.194354
25258 1 0.0233603 0.117596 0.196094
25207 1 0.0269876 0.0537246 0.195323
25191 2 0.0748722 0.0919358 0.199337
25263 4 0.0719733 0.116244 0.202335
25197 4 0.0728107 0.078209 0.209387
25192 5 0.0734132 0.0335844 0.209851
25196 3 0.0334149 0.0538626 0.214468
25190 8 0.063561 0.0568387 0.217407
25510 9 0.020642 0.0490102 0.219013
25517 7 0.0715816 0.072197 0.236384
25240 6 0.0740504 0.0567207 0.231851
22685 7 0.0802181 0.10134 0.219091
25506 7 0.0715763 0.0431118 0.237142
22649 6 0.0828685 0.10867 0.22575
25194 5 0.052615 0.0161631 0.196969
25189 2 0.0763897 0.0172654 0.200842
25308 6 0.0226608 0.11232 0.216836
25472 9 0.0642188 0.101866 0.244097
25272 7 0.0310422 0.11679 0.223089
25201 6 0.0204614 0.0495691 0.243503
25271 7 0.0117221 0.101179 0.218962
22650 7 0.112018 0.0488544 0.219435
22684 7 0.0681471 0.112433 0.228252
22759 7 0.102372 0.117858 0.238687
22958 9 0.119953 0.111871 0.220853
22687 7 0.115002 0.0626935 0.242356
25205 7 0.00927768 0.00585957 0.217006
22635 1 0.123325 0.0561238 0.193594
22683 6 0.121313 0.0531224 0.213395
25309 7 0.0351617 0.123745 0.242007
25270 6 0.0456389 0.125779 0.23594
22648 6 0.110268 0.0503765 0.247559
22651 7 0.124871 0.067263 0.216678
25231 3 0.0622857 0.0884111 0.248419
22613 7 0.121998 0.00947197 0.245581
14875 4 0.458017 0.0793684 0.248591
14907 1 0.500487 0.209449 0.173532
20097 6 0.207326 0.121226 0.249027
22655 1 0.125626 0.115366 0.195032
20062 7 0.138241 0.0852426 0.242201
20023 6 0.131721 0.0785264 0.235657
20134 7 0.222552 0.0686617 0.243483
20061 7 0.144316 0.0682179 0.234634
22643 5 0.193242 0.0858481 0.192792
22572 5 0.192989 0.0226205 0.194089
20083 1 0.221823 0.116978 0.193679
20029 1 0.228126 0.0545924 0.195898
22642 5 0.152056 0.0794158 0.194868
20063 7 0.176928 0.0498882 0.221286
22637 2 0.174554 0.0799014 0.200227
22641 4 0.177442 0.0562121 0.204758
22565 2 0.176377 0.0303647 0.202441
22640 5 0.169464 0.0975937 0.208326
20060 6 0.223773 0.0542173 0.216267
20022 6 0.181573 0.0590427 0.227326
20064 7 0.174124 0.0721428 0.226151
22647 5 0.152177 0.024766 0.198422
20096 6 0.209522 0.0608777 0.245837
22571 3 0.177593 0.0194223 0.213137
22638 8 0.159851 0.119415 0.21676
22644 3 0.1294 0.116423 0.214234
17471 6 0.245546 0.0157659 0.231066
20135 7 0.199012 0.0635853 0.239839
22965 7 0.1689 0.0999007 0.236308
22577 7 0.137122 0.0368316 0.238811
20025 7 0.208866 0.0571326 0.219731
22688 6 0.172737 0.111535 0.230843
22612 6 0.1467 0.0261434 0.234925
22576 7 0.158651 0.0357979 0.232128
20024 7 0.228324 0.0401926 0.219413
20101 7 0.238942 0.0826606 0.2287
20130 6 0.241527 0.0913095 0.234985
22918 9 0.159639 0.020553 0.245687
22931 9 0.16469 0.00925332 0.214423
20131 6 0.219786 0.120425 0.21401
20132 7 0.195633 0.112245 0.244906
22652 7 0.138132 0.00513982 0.222053
20133 7 0.220061 0.114947 0.246822
22954 7 0.172655 0.125872 0.236137
20045 7 0.207744 0.00800244 0.214585
20099 7 0.206176 0.129544 0.214993
20046 7 0.229184 -0.000842178 0.219979
20095 5 0.25167 0.0862583 0.197208
17860 7 0.36555 0.00368441 0.22708
20100 7 0.251716 0.102321 0.232787
17510 7 0.247214 0.024147 0.237452
17509 7 0.256218 0.0214357 0.226335
20366 9 0.262593 0.0836435 0.24707
20016 5 0.253201 0.0260853 0.198306
17456 7 0.29405 0.0490473 0.242331
20020 5 0.2932 0.086513 0.192415
20017 5 0.295826 0.0261186 0.196242
17477 1 0.328758 0.117519 0.193048
17458 1 0.323971 0.0546667 0.196219
17464 5 0.351259 0.0867441 0.198239
20013 2 0.274909 0.0927268 0.200354
20379 9 0.278042 0.0934872 0.21775
20089 4 0.272633 0.11719 0.201843
20019 3 0.279501 0.0827269 0.211607
20378 9 0.289522 0.0319152 0.215775
17466 6 0.314903 0.0569028 0.217008
17493 7 0.327497 0.067171 0.219372
17494 7 0.301482 0.0641707 0.216902
14960 7 0.344552 0.0922151 0.231814
14918 6 0.339873 0.0905384 0.223952
14959 7 0.353396 0.0867296 0.220163
17469 5 0.352306 0.0214663 0.199604
20014 3 0.277996 0.0208804 0.214616
20012 2 0.275438 0.0170679 0.202097
17503 6 0.308665 0.0549312 0.244217
17499 3 0.359846 0.0896255 0.24541
17578 6 0.273229 0.121507 0.227184
17457 7 0.314161 0.0602926 0.237578
14847 7 0.365296 0.0662298 0.229446
14846 7 0.365735 0.0475251 0.237439
17473 7 0.331838 0.11905 0.220148
17583 7 0.330195 0.108298 0.247439
17544 6 0.321962 0.119915 0.244947
17460 2 0.374423 0.0786221 0.200478
17463 4 0.374362 0.053586 0.202028
17386 2 0.374646 0.0290314 0.203186
17549 7 0.285801 0.120535 0.231276
17475 7 0.304755 0.00157286 0.220244
14908 2 0.472776 0.142335 0.202188
14878 6 0.373206 0.0531907 0.231211
17813 9 0.373581 0.0980787 0.245287
17825 9 0.376989 0.0364138 0.220119
17826 9 0.386835 0.073764 0.216247
17462 3 0.380925 0.0867168 0.212304
17391 3 0.37932 0.0233569 0.214969
15272 9 0.473839 0.00623933 0.219391
14840 5 0.492834 0.0848497 0.194794
17465 5 0.391504 0.0865622 0.191866
14906 1 0.420845 0.117392 0.195878
17392 5 0.393541 0.0202639 0.196338
14849 1 0.426752 0.0548747 0.195559
14917 5 0.451496 0.0857953 0.199066
14837 5 0.448962 0.0230039 0.199594
14911 4 0.473682 0.116795 0.20391
14834 2 0.474357 0.0923144 0.202504
14839 3 0.480652 0.0826051 0.213884
14955 6 0.415563 0.0549874 0.215679
15273 9 0.479699 0.0950335 0.219395
14922 7 0.405648 0.0432326 0.218058
14923 7 0.428243 0.0545614 0.220767
15308 7 0.469364 0.0682583 0.226771
14884 6 0.456481 0.0556767 0.227686
15297 7 0.465069 0.0415646 0.225125
15303 9 0.403522 0.0610852 0.241186
14868 8 0.445071 0.0546099 0.242782
14835 3 0.47778 0.0188244 0.215104
14874 3 0.415448 0.0545473 0.246544
14833 2 0.471551 0.0137535 0.203101
14914 6 0.415688 0.11637 0.216559
14838 5 0.490667 0.0199092 0.195572
14941 7 0.410901 0.100866 0.216569
12366 6 0.475771 0.107246 0.231502
12408 7 0.472587 0.0978436 0.238069
14951 6 0.402642 0.122884 0.243162
17545 6 0.305546 0.248678 0.245146
12407 7 0.462082 0.114846 0.230445
14905 7 0.406525 0.120109 0.23585
25343 6 0.00834668 0.236608 0.244491
22717 6 0.107871 0.123662 0.245191
25382 7 0.00867088 0.23818 0.236789
25310 7 0.0533592 0.138804 0.23881
20009 7 0.21805 0.00419791 0.241261
25484 9 0.0831356 0.132913 0.218831
22757 7 0.115655 0.180497 0.242331
25267 5 0.0914725 0.210957 0.194752
25265 5 0.0905912 0.149323 0.194692
25303 3 0.0121607 0.182029 0.246745
25260 2 0.0751132 0.141787 0.203028
25264 5 0.0510722 0.150788 0.200531
25332 1 0.0231406 0.243742 0.196802
25276 1 0.0250919 0.17913 0.198169
25342 5 0.0497109 0.208493 0.200164
25337 4 0.0707364 0.241561 0.203181
25261 2 0.0730581 0.216127 0.202749
25266 3 0.0806175 0.208701 0.213988
25262 3 0.0825254 0.14697 0.214709
25485 9 0.0915034 0.197574 0.213865
22720 7 0.102629 0.166566 0.220493
25377 6 0.0169124 0.176149 0.218483
25507 7 0.0646333 0.195371 0.228377
25518 7 0.0649239 0.167091 0.227658
25314 6 0.066099 0.180889 0.233092
25297 8 0.0430706 0.180275 0.244779
22830 7 0.0730037 0.233764 0.224963
22751 3 0.115449 0.244 0.245403
22756 6 0.113148 0.175418 0.215799
22758 7 0.0912613 0.175811 0.242939
22718 6 0.104492 0.174986 0.247447
25348 7 0.00805898 0.163716 0.219542
25347 7 0.00612177 0.187791 0.218487
25345 7 0.00668979 0.233751 0.219866
22706 1 0.121376 0.180503 0.195731
25378 6 0.0197826 0.242665 0.217444
22825 6 0.115169 0.238792 0.21628
22760 7 0.110747 0.139519 0.244269
22795 7 0.10354 0.230147 0.220255
22960 9 0.104555 0.249004 0.239695
22791 6 0.072135 0.242573 0.231292
22829 7 0.0630254 0.233397 0.235438
20098 7 0.228404 0.125529 0.219618
22796 7 0.126683 0.240928 0.221935
14916 5 0.49103 0.206323 0.194163
22719 7 0.1245 0.180637 0.221323
22724 1 0.128771 0.240244 0.197296
20167 7 0.205902 0.23035 0.216145
22646 5 0.192836 0.143103 0.1933
22713 5 0.194365 0.207684 0.193071
20103 1 0.227473 0.177002 0.194011
22716 5 0.149946 0.144292 0.196009
20154 1 0.222777 0.242207 0.19688
22722 7 0.145587 0.170522 0.240852
22645 4 0.172783 0.142271 0.210922
22712 5 0.154194 0.210559 0.199169
22639 2 0.173355 0.152268 0.199939
22708 2 0.176893 0.202255 0.201245
22711 4 0.176121 0.177191 0.200922
22710 3 0.185886 0.209412 0.212579
22932 9 0.188355 0.197195 0.217989
20204 6 0.216369 0.242097 0.217181
20092 3 0.230515 0.177223 0.213536
22721 7 0.148911 0.193922 0.24017
20406 9 0.217053 0.177091 0.218023
22745 8 0.146699 0.241506 0.243383
20166 6 0.18357 0.172391 0.226152
20206 7 0.169946 0.172487 0.230718
22755 6 0.14594 0.181509 0.235521
20205 7 0.181915 0.161673 0.220594
22762 6 0.15595 0.239904 0.228619
20169 7 0.202284 0.175204 0.239338
20203 6 0.210352 0.173911 0.246293
20170 7 0.222242 0.164474 0.244496
22966 7 0.168885 0.228119 0.226479
20168 7 0.217109 0.242983 0.225165
17548 7 0.275656 0.132932 0.221727
17508 6 0.328078 0.12965 0.214452
17472 7 0.341786 0.137088 0.212983
20090 5 0.25276 0.149741 0.193423
17504 3 0.364178 0.148372 0.24727
17617 7 0.281134 0.221512 0.221056
17582 7 0.334384 0.130735 0.244618
17581 7 0.297728 0.2409 0.23966
20367 9 0.256543 0.133631 0.244871
20164 5 0.250611 0.218521 0.197609
17651 6 0.284783 0.232804 0.226718
20368 9 0.264926 0.220962 0.242906
20091 5 0.294764 0.147747 0.193093
20094 5 0.289847 0.210171 0.192257
17531 1 0.32125 0.179324 0.195235
17551 1 0.325739 0.24037 0.194516
17538 5 0.350404 0.202057 0.192207
17543 5 0.35198 0.146697 0.196609
20085 2 0.273666 0.142322 0.199621
20086 8 0.260665 0.178523 0.217977
20087 2 0.27501 0.216589 0.201212
20159 4 0.279214 0.241235 0.20412
20088 5 0.270793 0.156582 0.209748
20093 4 0.271189 0.200504 0.210273
17547 7 0.306367 0.185812 0.219516
17540 3 0.331069 0.236187 0.213387
17579 6 0.319875 0.179358 0.215637
17546 7 0.317835 0.164053 0.216269
20136 6 0.276615 0.176968 0.231969
20413 7 0.271342 0.188364 0.238106
20402 7 0.273479 0.162408 0.236269
17534 8 0.361262 0.23821 0.21644
17814 9 0.366797 0.160297 0.242085
20127 3 0.261541 0.209991 0.248323
14996 7 0.364772 0.190296 0.237464
20123 3 0.256519 0.148402 0.247778
17571 3 0.353734 0.218917 0.247975
17815 9 0.357931 0.233503 0.248059
17536 5 0.370421 0.219997 0.206037
17618 7 0.27794 0.24552 0.223639
17854 9 0.319105 0.236912 0.219725
15026 6 0.368773 0.179679 0.23192
14997 7 0.355083 0.179143 0.227534
17861 7 0.37776 0.219031 0.233429
14910 3 0.473943 0.153988 0.213197
12371 7 0.495625 0.133673 0.220215
14958 7 0.402384 0.172891 0.237877
14942 7 0.40199 0.124098 0.217492
12329 7 0.430329 0.135631 0.227181
17827 9 0.372512 0.157973 0.218567
17533 2 0.373164 0.202788 0.197129
17461 2 0.374038 0.15379 0.201913
15274 9 0.475673 0.170252 0.212377
9739 6 0.465515 0.240688 0.230831
14995 7 0.40773 0.231301 0.218988
12406 7 0.49764 0.235717 0.238939
9777 7 0.471895 0.242791 0.22361
14915 3 0.475722 0.201543 0.213352
14956 6 0.428096 0.178476 0.215679
14904 7 0.388133 0.129992 0.242033
12291 6 0.443659 0.140218 0.230054
17467 3 0.372586 0.145284 0.213603
20008 7 0.192055 0.00874631 0.243558
9776 7 0.452905 0.232274 0.229511
14919 6 0.414824 0.174491 0.243235
17539 5 0.391765 0.207989 0.189451
14925 1 0.426403 0.180613 0.194832
14921 7 0.425596 0.178223 0.223246
14979 1 0.422193 0.240407 0.192572
14952 3 0.467634 0.209903 0.247987
17468 5 0.392765 0.144663 0.194823
14957 7 0.421611 0.160438 0.242393
17537 4 0.377704 0.179226 0.201958
12328 7 0.450638 0.14732 0.223764
14947 3 0.468975 0.14922 0.250047
14913 5 0.490666 0.149311 0.194653
15027 6 0.417768 0.23086 0.212405
14994 7 0.426728 0.218532 0.214192
15275 9 0.490046 0.193423 0.213751
14991 5 0.452436 0.207026 0.196992
15261 9 0.45967 0.150597 0.243498
17850 7 0.378504 0.245898 0.234516
12353 7 0.493184 0.193812 0.244165
17584 6 0.380605 0.232813 0.228958
15262 9 0.466467 0.223119 0.242971
14909 2 0.47395 0.213023 0.202204
12352 7 0.489868 0.16787 0.243109
14920 7 0.44443 0.178191 0.215509
14985 4 0.474198 0.238915 0.20364
17474 7 0.328386 -0.00506035 0.224528
25178 3 0.0248745 0.0606775 0.303522
25245 3 0.0266075 0.11196 0.304645
25251 5 0.0123432 0.0542412 0.284426
25246 4 0.0313136 0.088723 0.289152
25243 2 0.0302515 0.11334 0.292319
25224 1 0.0819553 0.0894975 0.287894
25179 5 0.0528581 0.0550449 0.289075
25173 2 0.029895 0.0635424 0.291695
25170 1 0.0758395 0.0253832 0.288387
25232 5 0.0743284 0.0878052 0.267743
25230 5 0.0752039 0.0255576 0.267878
22671 1 0.10582 0.0564655 0.267905
25171 1 0.0095177 0.0549503 0.264156
25229 5 0.0347747 0.0237269 0.263024
25306 5 0.0343651 0.0855062 0.264981
25226 2 0.0569768 0.0952083 0.260318
25225 2 0.0580384 0.0163501 0.259754
25496 9 0.00961812 0.0546017 0.305032
25288 6 0.0864387 0.0867898 0.308498
22619 1 0.108989 0.118712 0.265532
25300 4 0.0557783 0.120527 0.26079
25248 5 0.0515664 0.123783 0.289283
22699 5 0.111592 0.114916 0.287223
22624 5 0.111345 0.0569079 0.287742
25247 5 0.00953691 0.121002 0.286974
25218 6 0.0724408 0.0244645 0.309412
25497 9 0.0233043 0.0975665 0.307344
25294 1 0.00279646 0.117465 0.265498
22626 3 0.119864 0.123258 0.307442
25257 7 0.10079 0.0801116 0.310156
25495 9 0.0360838 0.00239955 0.310656
22944 9 0.119124 0.107215 0.30861
22622 3 0.126033 0.0647443 0.305824
25184 7 0.0636551 0.035615 0.312165
25256 7 0.0757492 0.0780516 0.312747
11751 7 0.498751 0.192101 0.401988
22623 4 0.126073 0.026012 0.296966
22681 5 0.138014 0.0240165 0.265019
22620 2 0.130319 0.0513868 0.295219
19999 4 0.221668 0.0478352 0.301128
19993 2 0.232142 0.063879 0.293203
20068 2 0.231719 0.113176 0.297164
20071 4 0.229248 0.088145 0.296789
22625 5 0.154378 0.0519254 0.291471
22627 5 0.152488 0.117871 0.293437
22618 1 0.179446 0.086605 0.29085
20076 5 0.216279 0.0631437 0.283314
22600 1 0.186231 0.0272767 0.290221
22609 5 0.177353 0.0252265 0.270703
22678 5 0.175402 0.0881947 0.271072
19990 1 0.21253 0.0579204 0.266403
22677 5 0.135474 0.0888625 0.265066
20129 5 0.237324 0.0889575 0.265426
20053 5 0.235731 0.0236439 0.263381
22602 2 0.159938 0.0314835 0.261895
22673 2 0.158559 0.0814954 0.262665
22676 4 0.161906 0.0567775 0.261289
20119 1 0.207071 0.118759 0.269808
20072 5 0.212249 0.120581 0.290099
22665 6 0.179828 0.0789749 0.311244
19992 8 0.218761 0.0263924 0.310395
19998 3 0.18789 0.0284171 0.309446
22608 3 0.168229 0.0166053 0.25238
22675 3 0.164151 0.0925008 0.252065
20070 3 0.228689 0.121771 0.308794
22943 9 0.139695 0.0687925 0.309692
22621 2 0.128263 0.125097 0.294866
22919 9 0.166224 0.108845 0.252804
22633 7 0.188718 0.0652239 0.311334
19994 5 0.226672 0.00310477 0.303064
22545 2 0.130172 0.00186384 0.292659
20000 5 0.255811 0.0589769 0.291014
17448 5 0.353839 0.123362 0.287424
17440 8 0.321703 0.0862074 0.308654
17446 3 0.290994 0.0876194 0.309646
17442 5 0.326535 0.0655807 0.299062
17447 4 0.324157 0.109648 0.29947
17443 4 0.334633 0.0254952 0.294559
17439 2 0.333044 0.0499446 0.290432
20048 1 0.287432 0.0889951 0.289784
19989 1 0.280304 0.026688 0.288434
17445 5 0.354364 0.0582324 0.286478
17444 5 0.314225 0.055373 0.281942
20057 5 0.277428 0.0911526 0.272559
17495 1 0.306218 0.0566531 0.265164
17506 5 0.335188 0.0297169 0.265192
20054 5 0.274931 0.0250214 0.269988
17438 1 0.311584 0.120001 0.264694
17501 5 0.335983 0.0887374 0.261441
17421 2 0.359384 0.0307272 0.261764
20050 2 0.261423 0.0944348 0.263243
20049 2 0.258987 0.0184664 0.261078
17497 2 0.357755 0.0801027 0.257127
20040 6 0.283455 0.0243747 0.308977
17500 4 0.361183 0.0540138 0.257123
20073 5 0.255223 0.117878 0.292874
20124 4 0.262362 0.119505 0.260451
17524 5 0.312025 0.125019 0.282441
17427 4 0.357884 0.0129629 0.25359
20056 3 0.269673 0.0795647 0.253895
20365 9 0.265551 0.0479647 0.252553
20005 7 0.271552 0.0143018 0.311218
17838 9 0.332439 0.00606665 0.311049
20051 3 0.264734 0.0331117 0.251363
17369 2 0.332367 0.000691539 0.294302
17502 5 0.375389 0.0878414 0.265191
17428 5 0.376469 0.0243354 0.270241
17437 1 0.380149 0.0898739 0.285246
14822 3 0.424204 0.0581551 0.306645
14891 4 0.432712 0.0871027 0.293204
14817 2 0.429532 0.0625037 0.294618
14887 2 0.430178 0.111411 0.289876
14823 5 0.452161 0.0549829 0.291208
17418 1 0.384137 0.0248737 0.289225
14893 5 0.453408 0.121522 0.289709
14897 5 0.412605 0.0545069 0.286892
14892 5 0.413386 0.115005 0.281295
14866 1 0.483341 0.0860131 0.287447
14814 1 0.47612 0.0242711 0.288013
14873 5 0.475119 0.022584 0.26761
14876 5 0.4765 0.0828198 0.266697
14815 1 0.409748 0.054309 0.265638
14943 1 0.40433 0.119743 0.263492
14954 5 0.43538 0.0828591 0.264223
17412 6 0.391358 0.0249229 0.309041
14869 2 0.456964 0.0895656 0.259642
14872 5 0.435621 0.0193478 0.265033
14867 2 0.457973 0.0170308 0.259045
14948 4 0.456778 0.114645 0.25913
14860 6 0.490604 0.0863956 0.307896
17380 7 0.403654 0.0144879 0.310785
14870 5 0.455213 0.0349875 0.250851
15286 9 0.430542 0.0693125 0.311356
17379 7 0.399993 0.0388784 0.31041
19408 7 0.206016 0.00119709 0.403047
14607 9 0.414745 -0.00253368 0.33854
25299 5 0.0514623 0.158443 0.253073
25255 7 0.0915988 0.134349 0.308038
25296 2 0.0537086 0.144496 0.263201
25241 1 0.0754025 0.151953 0.290463
25249 3 0.0225911 0.177645 0.305321
25360 6 0.082538 0.21856 0.309902
25320 4 0.0245057 0.214214 0.295227
25317 2 0.0286521 0.238782 0.293756
25295 1 0.0821463 0.214356 0.289221
25250 5 0.0513078 0.184461 0.29116
25244 2 0.0275873 0.188142 0.293995
25325 5 0.0103736 0.180071 0.285706
25302 5 0.0756828 0.153044 0.268791
25305 5 0.0741235 0.211671 0.270203
22742 1 0.104907 0.180154 0.26758
25301 5 0.0315841 0.152664 0.267422
25242 1 0.00723137 0.180006 0.26634
25376 5 0.0322057 0.219133 0.266081
25298 2 0.0561574 0.218609 0.261845
25289 6 0.079795 0.145112 0.30974
25498 9 0.0174241 0.18879 0.309974
25371 4 0.0626313 0.241473 0.257193
22690 1 0.109093 0.240916 0.264352
22695 5 0.108021 0.184622 0.290237
22773 5 0.112787 0.244245 0.282188
25499 9 0.0277141 0.237891 0.310619
25366 1 0.00530824 0.241982 0.265143
25331 7 0.0976408 0.216264 0.307896
22697 3 0.119659 0.239445 0.30233
25321 5 0.00871991 0.246287 0.287737
25304 4 0.0520465 0.201652 0.253518
22945 9 0.128027 0.161335 0.310998
25322 5 0.0514842 0.245529 0.288905
25319 3 0.0276585 0.250274 0.304938
22693 3 0.132862 0.174508 0.307687
22679 3 0.166514 0.141875 0.249965
22694 4 0.126742 0.150072 0.291911
22691 2 0.128723 0.174422 0.295147
22748 4 0.160665 0.179472 0.257465
22674 2 0.157986 0.154429 0.259985
22754 5 0.134334 0.14993 0.263268
20202 5 0.233609 0.211435 0.263107
22672 1 0.180245 0.149759 0.288992
20142 4 0.226154 0.212068 0.292629
20147 5 0.213091 0.17763 0.286059
22696 5 0.15078 0.182243 0.29103
20074 3 0.228376 0.178728 0.305685
20069 2 0.230346 0.18703 0.293545
22689 1 0.176943 0.211726 0.288377
20392 9 0.226084 0.1905 0.310189
20139 2 0.227273 0.23716 0.294845
20067 1 0.210021 0.181041 0.266088
22680 5 0.175301 0.148374 0.26879
22750 5 0.173909 0.210949 0.268687
22749 5 0.135013 0.204598 0.265996
20125 5 0.235578 0.148055 0.265709
22744 2 0.157218 0.204055 0.26061
22737 6 0.178915 0.200757 0.30794
22736 6 0.192372 0.149396 0.309755
22698 5 0.152337 0.243437 0.289276
20190 1 0.202235 0.243406 0.265756
20143 5 0.208734 0.247475 0.287702
20393 9 0.227213 0.230399 0.311435
20141 3 0.223773 0.242633 0.306717
22705 7 0.20481 0.159792 0.309043
22703 7 0.181131 0.198705 0.316271
22747 5 0.153989 0.218372 0.25105
22702 7 0.168486 0.188772 0.306363
22692 2 0.128234 0.249917 0.291589
14381 3 0.495649 0.249118 0.4294
17441 2 0.330059 0.126798 0.291045
20075 5 0.25382 0.179431 0.290837
20082 7 0.26222 0.161387 0.30811
20144 5 0.25062 0.241536 0.292086
17572 4 0.356865 0.183724 0.257416
20126 5 0.276802 0.155992 0.26679
20066 1 0.278092 0.1496 0.288965
17516 2 0.330013 0.176949 0.294403
17518 3 0.328158 0.185748 0.306067
20114 6 0.286626 0.213161 0.308002
17519 4 0.327402 0.151679 0.2946
17521 5 0.351424 0.184143 0.288736
20120 1 0.28053 0.215226 0.288002
17520 5 0.310939 0.186043 0.287536
17595 5 0.312283 0.245747 0.285774
17567 1 0.302693 0.183114 0.267301
20128 5 0.273793 0.215037 0.267519
17577 5 0.332792 0.150714 0.261353
17573 5 0.331907 0.213209 0.263984
17498 2 0.356076 0.158464 0.258048
20121 2 0.25811 0.144005 0.260827
17569 2 0.354162 0.207896 0.259667
20122 2 0.256258 0.219977 0.259152
20196 4 0.259193 0.245373 0.258134
20113 6 0.271291 0.148885 0.309759
17523 5 0.353038 0.242751 0.291129
17515 1 0.307302 0.246831 0.265446
17522 3 0.322026 0.239454 0.304554
17839 9 0.315497 0.195259 0.306748
20079 7 0.297293 0.22396 0.309729
20081 7 0.260606 0.137277 0.310316
17840 9 0.329958 0.224937 0.305446
17530 7 0.361246 0.198776 0.305939
17561 6 0.372593 0.2088 0.307659
20080 7 0.274831 0.217184 0.312797
17505 5 0.374524 0.150869 0.266087
15305 9 0.371354 0.146276 0.310777
17574 5 0.373493 0.21708 0.265726
17514 1 0.376418 0.213477 0.286895
14890 5 0.4206 0.12541 0.298387
14966 3 0.426146 0.242972 0.305754
15020 4 0.459169 0.241518 0.258617
14945 2 0.456457 0.13963 0.259932
14886 1 0.408973 0.182611 0.262879
14894 3 0.383392 0.142819 0.304805
14972 5 0.410986 0.185884 0.280196
14896 5 0.451455 0.185991 0.288272
14888 8 0.413365 0.147148 0.307121
12342 3 0.483853 0.207534 0.306394
14895 4 0.417604 0.16909 0.298079
14964 2 0.427718 0.236168 0.293902
14967 4 0.423662 0.210848 0.294177
14889 2 0.425195 0.18694 0.29007
17496 1 0.383002 0.150097 0.28605
14944 1 0.482781 0.211159 0.287318
14885 1 0.476549 0.152102 0.286939
14953 5 0.47473 0.208333 0.267357
14936 6 0.48616 0.161409 0.306072
14950 5 0.471984 0.145573 0.268971
15025 5 0.433659 0.209657 0.260332
14949 5 0.433156 0.147026 0.261676
14946 2 0.458026 0.216465 0.258962
15015 1 0.403965 0.243155 0.265339
14969 5 0.453207 0.240642 0.291013
14968 5 0.411234 0.244694 0.285779
14901 7 0.484734 0.17637 0.309556
12753 9 0.472417 0.211124 0.312835
25183 7 0.0879325 0.0303414 0.309329
24544 6 0.0934142 0.0286004 0.333933
24654 7 0.104551 0.0912994 0.333751
24655 7 0.0836878 0.0792715 0.33037
24614 6 0.0892731 0.090834 0.335746
24820 9 0.0406173 0.0513898 0.335359
24550 1 0.0887919 0.0890778 0.355708
24571 2 0.0356806 0.0606128 0.351448
24576 3 0.0311887 0.0459644 0.34124
24577 5 0.0594243 0.0555383 0.354551
24639 2 0.0333798 0.110485 0.350676
24643 4 0.033427 0.0849598 0.348983
24644 5 0.0161986 0.115582 0.359066
24645 5 0.0571892 0.117765 0.354026
24649 5 0.0179864 0.0562063 0.360066
24568 1 0.0852211 0.0264712 0.355091
22022 5 0.118709 0.0574035 0.357655
22097 5 0.118929 0.12115 0.358059
24582 7 0.0863526 0.031213 0.327129
24581 7 0.106467 0.0376618 0.333249
25186 7 0.0469803 0.0746723 0.324681
25217 6 0.0554333 0.0645363 0.320823
25185 7 0.0466685 0.0609581 0.314627
24819 9 0.0353012 0.0136152 0.340231
22267 9 0.131335 0.0703218 0.337355
1326 7 0.00193768 0.0672484 0.336153
20391 9 0.226103 0.109616 0.313742
22266 9 0.126883 0.0076152 0.335717
22268 9 0.125933 0.11752 0.333335
22634 7 0.176028 0.0797388 0.318466
20409 9 0.17948 0.026201 0.317207
22024 3 0.131638 0.108757 0.339037
22032 7 0.198819 0.0380284 0.33549
22020 3 0.131065 0.054656 0.338263
22021 4 0.140485 0.0243018 0.350867
20065 6 0.242084 0.0241559 0.321173
22631 7 0.206213 0.0961934 0.336862
22632 7 0.186766 0.102291 0.329915
19714 9 0.2194 0.0690679 0.33546
22666 6 0.190884 0.0911769 0.335469
19468 3 0.229714 0.11607 0.338317
19398 3 0.22503 0.0565124 0.338797