ITEM: TIMESTEP
69000
ITEM: NUMBER OF ATOMS
25520
ITEM: BOX BOUNDS pp pp pp
-1.6044263776302858e-01 5.9858986227762244e+01
-1.7138803868215435e+00 5.8884165660822049e+01
-1.2173744323605783e+01 1.1144947672960544e+02
ITEM: ATOMS id type xs ys zs
25292 7 0.104442 0.052677 0.114494
25293 7 0.077939 0.0527996 0.113025
25252 6 0.0905571 0.0582322 0.118051
22906 9 0.111565 0.0805748 0.119736
25220 7 0.0451241 0.0575851 0.115437
25182 6 0.0512019 0.0493492 0.109214
25219 7 0.0489504 0.0343892 0.111118
25253 6 0.077644 0.119415 0.118876
25278 8 0.0145844 0.116925 0.118945
25290 7 0.0910151 0.112719 0.116135
25291 7 0.0688006 0.119458 0.112784
25214 3 0.0255531 0.0218544 0.125363
2033 7 0.0180752 0.113992 0.098094
22905 9 0.131049 0.00471168 0.11538
1995 6 0.0288718 0.11636 0.104771
22658 3 0.125887 0.0178521 0.11857
22662 3 0.124618 0.089607 0.119578
22667 7 0.138606 0.112932 0.109353
20106 3 0.226022 0.094104 0.116218
20036 3 0.229857 0.0227395 0.115524
20353 9 0.220591 0.10855 0.116502
20352 9 0.243749 0.0244638 0.111954
22700 6 0.183836 0.122706 0.116557
20117 7 0.303087 0.0644691 0.113491
20077 6 0.288868 0.0585861 0.114921
17480 3 0.330767 0.0250039 0.116443
17799 9 0.331687 0.040788 0.115373
17800 9 0.328577 0.0869027 0.113823
17484 3 0.325746 0.0780069 0.12065
20118 7 0.291383 0.0432765 0.113411
17413 7 0.3467 0.00776775 0.104145
25378 6 0.00497587 0.213854 0.186884
22669 7 0.20323 0.00337155 0.115039
17451 6 0.381767 0.0619291 0.11232
17490 7 0.38584 0.0505801 0.107482
17489 7 0.395794 0.0679672 0.11393
17566 7 0.38356 0.104166 0.10939
14856 3 0.437445 0.0159806 0.115921
14928 3 0.429168 0.0914258 0.116888
15247 9 0.431356 0.10708 0.117831
15246 9 0.4267 0.00491069 0.115722
17525 6 0.386132 0.117089 0.113717
17565 7 0.402888 0.11863 0.113197
14898 6 0.476364 0.123069 0.113989
14862 7 0.46544 0.00229565 0.115261
25346 7 0.0109171 0.214383 0.194336
2032 7 0.0352036 0.133591 0.102923
22726 8 0.113161 0.185081 0.116413
22957 9 0.0699534 0.186667 0.113645
2101 7 0.0198493 0.184409 0.112164
2066 6 0.0182744 0.190623 0.104522
22732 3 0.0834975 0.183306 0.119062
22733 4 0.124033 0.206144 0.124923
25353 3 0.0147966 0.224331 0.126715
2102 7 0.00663802 0.201908 0.106827
22740 7 0.170006 0.124597 0.110488
22741 7 0.197187 0.130961 0.114149
22728 5 0.126848 0.157854 0.118593
17636 7 0.401098 0.24488 0.111293
22630 6 0.145594 0.125662 0.105744
22668 7 0.139287 0.139256 0.110014
20354 9 0.219996 0.157296 0.11524
20148 6 0.185029 0.199191 0.119233
20188 7 0.201303 0.199829 0.119099
20189 7 0.180852 0.214212 0.11758
20110 3 0.223326 0.146372 0.120305
20176 5 0.224877 0.222903 0.123329
20180 3 0.185301 0.249291 0.118149
20174 8 0.216012 0.245181 0.115454
20115 7 0.243966 0.239416 0.0991416
20078 6 0.227273 0.242177 0.100713
15029 7 0.388941 0.242328 0.19126
17802 9 0.328434 0.207482 0.111532
17554 3 0.326511 0.156675 0.117207
17801 9 0.326883 0.172279 0.117919
17558 3 0.322029 0.205583 0.11847
17564 7 0.360671 0.165113 0.114217
14940 7 0.481348 0.117033 0.106979
17637 7 0.378889 0.243696 0.108025
14939 7 0.459892 0.124979 0.113014
17526 6 0.376243 0.166641 0.114182
17563 7 0.380003 0.151436 0.112825
14938 7 0.407466 0.172092 0.102731
15248 9 0.429989 0.151309 0.110957
14899 6 0.422827 0.174432 0.102507
14937 7 0.426612 0.180028 0.109536
15002 3 0.427279 0.211325 0.115387
14932 3 0.431534 0.13986 0.116917
15249 9 0.412131 0.216359 0.114265
15000 2 0.431718 0.203092 0.12695
15003 4 0.431097 0.177892 0.126133
15012 7 0.442405 0.222897 0.102145
14974 6 0.446642 0.237357 0.0992131
15014 7 0.47272 0.241856 0.104813
14973 6 0.486247 0.243715 0.110264
17596 6 0.388752 0.234968 0.112753
22651 7 0.106317 0.00958357 0.186601
25280 5 0.0216867 0.0960151 0.127831
25287 5 0.0172193 0.0258045 0.146034
25283 5 0.0538528 0.0909233 0.139206
25282 5 0.0141476 0.0847663 0.145834
25281 4 0.0329011 0.056165 0.13406
25277 2 0.0307973 0.0809523 0.13655
25275 1 0.0755781 0.123229 0.139621
25268 5 0.0395454 0.0634435 0.163382
25265 5 0.0752261 0.120136 0.158736
25264 5 0.0366767 0.121698 0.16585
25258 1 0.00774908 0.0869682 0.162816
22660 5 0.112377 0.0274505 0.138523
25215 5 0.0575288 0.0232633 0.137981
25209 2 0.0332178 0.0309699 0.136885
25207 1 0.0136109 0.0270312 0.166742
25198 5 0.0784425 0.0565501 0.15818
25191 2 0.0632275 0.0639383 0.167767
22735 5 0.114219 0.0928629 0.140067
25188 1 0.0854601 0.0592248 0.138565
25263 4 0.0657578 0.0882949 0.170416
25260 2 0.0601612 0.114123 0.168513
22635 1 0.105663 0.0231191 0.160064
22655 1 0.112072 0.0889782 0.15933
25197 4 0.0610247 0.0472601 0.17682
22683 6 0.111594 0.0188688 0.180692
22958 9 0.107408 0.0908101 0.184739
25308 6 0.00511538 0.0829926 0.183247
25196 3 0.0238814 0.0227562 0.184424
25190 8 0.0547557 0.0249528 0.185251
25192 5 0.0608426 0.00296014 0.176282
22650 7 0.1203 0.0308766 0.18431
22644 3 0.119049 0.0859538 0.179034
20107 4 0.22647 0.0597704 0.126916
20104 2 0.230779 0.0846713 0.12788
20031 2 0.22906 0.0346462 0.126739
22729 4 0.133173 0.121858 0.130097
22656 2 0.130315 0.0166638 0.131322
22657 2 0.131533 0.0970012 0.131377
20108 5 0.213167 0.0927181 0.136102
20112 5 0.212005 0.0267878 0.135422
22636 1 0.183671 0.123053 0.137097
22663 5 0.154786 0.0861746 0.133615
22654 1 0.17798 0.0578974 0.133813
22661 5 0.154113 0.0277803 0.132945
20029 1 0.208398 0.026762 0.156916
20083 1 0.205108 0.0888713 0.156308
22637 2 0.157361 0.051183 0.162392
22642 5 0.135032 0.0569198 0.158003
22643 5 0.176625 0.05833 0.155274
22646 5 0.177791 0.120932 0.156789
22641 4 0.161262 0.0263111 0.165659
22645 4 0.158155 0.109748 0.173752
22640 5 0.155947 0.0662293 0.172357
20060 6 0.216279 0.0187919 0.175997
22638 8 0.149711 0.0869752 0.18186
20025 7 0.221306 0.027253 0.182358
20090 5 0.235575 0.116283 0.159208
20095 5 0.233809 0.0592953 0.160786
20024 7 0.22969 0.00851951 0.174677
20100 7 0.176375 0.0278926 0.184186
22565 2 0.161078 0.000636471 0.164311
17555 4 0.32628 0.118243 0.127465
17478 2 0.333302 0.0187851 0.128824
17479 2 0.330694 0.0937169 0.130781
17485 5 0.355952 0.0915578 0.133365
17483 5 0.356087 0.0269887 0.132884
17560 5 0.314708 0.0873337 0.139833
20109 5 0.253924 0.0897919 0.131802
20102 1 0.277888 0.117561 0.134835
17482 5 0.313301 0.0261538 0.135446
20037 5 0.253092 0.030614 0.130661
20011 1 0.282156 0.0549138 0.135514
20379 9 0.270712 0.0595791 0.179729
17458 1 0.308322 0.0263673 0.157055
17464 5 0.337753 0.0540434 0.159375
17477 1 0.311184 0.0883676 0.156934
17543 5 0.338554 0.117788 0.158184
20013 2 0.257949 0.0626553 0.163954
20020 5 0.275647 0.0549213 0.155541
20085 2 0.259959 0.112752 0.16379
20091 5 0.278647 0.121361 0.156635
20089 4 0.262933 0.0881326 0.166228
17508 6 0.317887 0.0932754 0.176677
20019 3 0.26417 0.0499338 0.174614
17466 6 0.307917 0.0274363 0.177981
17473 7 0.316979 0.0808431 0.18196
17493 7 0.294223 0.0322841 0.180834
17472 7 0.332633 0.0991644 0.178649
17460 2 0.361458 0.050845 0.16269
17494 7 0.318006 0.0370774 0.18217
17548 7 0.28202 0.0839036 0.184892
17463 4 0.365267 0.0257144 0.165587
20378 9 0.261715 0.0180941 0.173403
14960 7 0.349505 0.0623449 0.184992
17462 3 0.369898 0.0628979 0.17302
17461 2 0.361298 0.123232 0.162799
17826 9 0.366613 0.0783302 0.172762
17467 3 0.364595 0.111286 0.174076
17386 2 0.36261 0.000178877 0.1633
14929 4 0.428893 0.0543669 0.125666
14926 2 0.434565 0.0787436 0.127578
14851 2 0.434238 0.0286915 0.127085
14931 5 0.45861 0.082641 0.131207
14857 5 0.459267 0.0275862 0.131365
14924 1 0.483053 0.116619 0.134335
17476 1 0.382164 0.0560776 0.134152
17459 1 0.384414 0.117756 0.134351
14832 1 0.488531 0.0550274 0.136434
14934 5 0.415984 0.0193844 0.134925
14930 5 0.417385 0.0864123 0.135818
12292 7 0.491097 0.036581 0.17818
14913 5 0.479999 0.119225 0.154434
14840 5 0.480563 0.0532389 0.157424
14917 5 0.439537 0.0563853 0.159657
14906 1 0.410136 0.0887321 0.155817
14849 1 0.414054 0.0254953 0.157573
17465 5 0.378297 0.0541556 0.153522
15272 9 0.458367 0.00712623 0.176502
17827 9 0.379746 0.112617 0.176267
14834 2 0.461907 0.0625736 0.164438
14908 2 0.463928 0.112873 0.163428
14912 5 0.440894 0.118181 0.159385
17468 5 0.380233 0.115986 0.155069
14911 4 0.466815 0.0879028 0.165386
14923 7 0.416148 0.0271884 0.184543
14839 3 0.465692 0.0545065 0.175864
14914 6 0.416111 0.097335 0.176286
14955 6 0.40932 0.0290834 0.177591
14942 7 0.42992 0.103536 0.173389
15273 9 0.458237 0.0648407 0.181561
14941 7 0.419662 0.0949666 0.183883
14922 7 0.395398 0.036596 0.179605
12293 7 0.495418 0.0126328 0.180805
14910 3 0.468877 0.122381 0.175409
25484 9 0.0804083 0.130532 0.179176
25262 3 0.0646169 0.128786 0.179027
25285 4 0.0201967 0.140598 0.126917
25359 5 0.0109119 0.153143 0.145537
25356 5 0.050804 0.211483 0.136822
25354 4 0.0220363 0.183368 0.133033
25351 2 0.0255498 0.209558 0.135319
25349 1 0.0774453 0.246864 0.139487
25342 5 0.0351158 0.183077 0.165121
25338 5 0.0358813 0.246132 0.165889
25334 2 0.0594819 0.239325 0.168354
25332 1 0.00418337 0.213399 0.165683
25286 5 0.0501839 0.154255 0.13897
25279 2 0.0259381 0.157939 0.135344
25276 1 0.00996627 0.1507 0.163767
25267 5 0.0758192 0.181122 0.158479
25261 2 0.0599261 0.188979 0.167457
25259 1 0.0821507 0.185807 0.13829
22730 5 0.110922 0.153889 0.137568
22807 5 0.114416 0.216695 0.141858
25337 4 0.0615287 0.214118 0.168663
25339 5 0.0763257 0.247254 0.160294
22706 1 0.107875 0.152997 0.157886
22724 1 0.111101 0.213697 0.161281
25459 9 0.0198518 0.239281 0.126996
25355 5 0.00962298 0.213046 0.145277
22756 6 0.114741 0.145427 0.178529
25485 9 0.0664978 0.160299 0.177101
25266 3 0.0683589 0.175841 0.177565
25336 3 0.0677076 0.245777 0.180259
22720 7 0.120847 0.14913 0.185725
22825 6 0.11208 0.232484 0.180921
25377 6 0.00529922 0.140306 0.183449
22796 7 0.107632 0.247618 0.183468
25486 9 0.0780054 0.233607 0.182435
22716 5 0.136737 0.126634 0.159991
20177 4 0.230909 0.182003 0.128742
20105 2 0.232224 0.156888 0.130986
22719 7 0.128229 0.141585 0.173859
22639 2 0.160018 0.127591 0.165041
22802 4 0.127733 0.247827 0.130793
20173 2 0.23122 0.207266 0.132142
20160 5 0.238824 0.245098 0.164448
22727 2 0.131979 0.222114 0.133555
22725 2 0.130918 0.146973 0.130105
20178 5 0.214197 0.21261 0.141402
20183 5 0.215903 0.154577 0.140503
22707 1 0.185547 0.247089 0.137751
22723 1 0.179702 0.184217 0.137491
22734 5 0.155478 0.215201 0.137231
22731 5 0.154771 0.155641 0.134207
20103 1 0.213562 0.15165 0.160363
20154 1 0.210957 0.212201 0.157288
22708 2 0.160479 0.17829 0.166624
22712 5 0.137959 0.183063 0.162535
22713 5 0.179352 0.184341 0.15886
22715 5 0.179939 0.242757 0.157777
22790 5 0.13879 0.24802 0.162517
22711 4 0.161122 0.15289 0.166969
20092 3 0.218054 0.149512 0.180003
22714 3 0.163862 0.234228 0.177043
22710 3 0.165126 0.189218 0.178071
22932 9 0.156419 0.203085 0.17846
20406 9 0.207352 0.149815 0.186556
22933 9 0.178777 0.234842 0.179763
20204 6 0.213175 0.213978 0.177817
20167 7 0.21552 0.22879 0.181023
20168 7 0.2289 0.208079 0.178537
20164 5 0.240135 0.188209 0.160267
22795 7 0.127078 0.234224 0.177707
20086 8 0.248694 0.150389 0.181634
17625 4 0.32901 0.244644 0.126516
17552 2 0.328931 0.143673 0.12788
17553 2 0.329695 0.219094 0.128432
17557 5 0.351994 0.150465 0.132362
17559 5 0.353225 0.213061 0.131943
17556 5 0.312585 0.150477 0.136637
20179 5 0.254174 0.214575 0.136636
20111 5 0.254823 0.148469 0.134057
20084 1 0.283395 0.181726 0.138982
17631 5 0.314283 0.215123 0.137703
20171 1 0.279669 0.244955 0.138704
20088 5 0.259358 0.126604 0.174086
17547 7 0.292088 0.163434 0.178613
17546 7 0.295116 0.138754 0.179267
17531 1 0.308183 0.148795 0.157447
17538 5 0.338408 0.177433 0.157829
17551 1 0.314449 0.212902 0.158039
20087 2 0.263764 0.187962 0.164921
20094 5 0.280233 0.182147 0.155966
20156 2 0.261383 0.238055 0.167917
20159 4 0.265925 0.212129 0.169364
20093 4 0.260754 0.171022 0.173335
17536 5 0.361364 0.188532 0.171873
17540 3 0.322127 0.2106 0.177531
17854 9 0.309897 0.205223 0.18257
17579 6 0.303605 0.151794 0.178331
17534 8 0.35263 0.210851 0.180414
17541 4 0.358793 0.234364 0.172954
17533 2 0.361823 0.174012 0.16233
17618 7 0.274233 0.200732 0.199132
17617 7 0.276463 0.209698 0.187854
17537 4 0.362617 0.148404 0.165136
20161 5 0.27923 0.244102 0.159441
14997 7 0.372806 0.154521 0.184836
14919 6 0.404527 0.150868 0.212372
14996 7 0.371234 0.135634 0.191797
17428 5 0.372624 0.00394915 0.234856
20049 2 0.250697 0.000596067 0.227964
14927 2 0.433935 0.152998 0.127835
15005 5 0.456171 0.209355 0.130863
14933 5 0.458203 0.146643 0.132193
14998 1 0.480389 0.241641 0.131092
14986 5 0.439602 0.244384 0.153531
14907 1 0.488101 0.179702 0.132809
15004 5 0.4116 0.208177 0.134246
17532 1 0.383541 0.241055 0.133596
17550 1 0.37736 0.177503 0.13386
15008 5 0.417137 0.146275 0.136609
12369 7 0.491413 0.201785 0.177434
14916 5 0.480307 0.178592 0.154378
14979 1 0.409498 0.210833 0.155587
17539 5 0.379484 0.178426 0.153723
14925 1 0.414098 0.14965 0.156617
17542 5 0.380376 0.241091 0.154669
14921 7 0.427362 0.145697 0.180326
15274 9 0.477883 0.1356 0.174217
14909 2 0.463313 0.187328 0.162552
14981 2 0.461003 0.237866 0.159165
14991 5 0.439828 0.18089 0.159327
14985 4 0.463933 0.212327 0.16143
14995 7 0.427756 0.194149 0.175256
15275 9 0.467064 0.190837 0.179289
14994 7 0.408075 0.199228 0.182413
15027 6 0.415356 0.204286 0.175964
14915 3 0.467937 0.178888 0.174344
14956 6 0.413495 0.151487 0.177585
14920 7 0.403536 0.151203 0.183748
14987 5 0.4798 0.245826 0.151157
25294 1 0.0044726 0.101361 0.234793
14947 3 0.455173 0.133052 0.212564
22609 5 0.17361 0.00234871 0.241138
25227 3 0.0608425 0.00911232 0.222341
25229 5 0.0326961 0.00704752 0.235517
25309 7 0.043075 0.114784 0.200507
25517 7 0.0821452 0.0118451 0.200879
25310 7 0.0389745 0.091294 0.198724
25272 7 0.00709356 0.0906461 0.190124
25510 9 0.0144092 0.0153493 0.190618
25471 9 0.0597547 0.0257078 0.22339
25236 7 0.025392 0.0206152 0.212606
25237 7 0.0313527 0.0462683 0.214847
22671 1 0.103148 0.0351397 0.239692
25472 9 0.0714102 0.0667272 0.213266
25311 7 0.00722327 0.104907 0.208849
25300 4 0.0622887 0.0973843 0.227673
25296 2 0.0585588 0.122514 0.231302
25270 6 0.0309089 0.104871 0.200139
25240 6 0.0730861 0.0253894 0.197893
25231 3 0.0635313 0.0578103 0.218588
25226 2 0.0578187 0.0721622 0.228622
25306 5 0.0339609 0.0675732 0.231553
25201 6 0.0192801 0.0354042 0.214592
25301 5 0.033337 0.123544 0.234223
25232 5 0.07287 0.0643849 0.237969
22619 1 0.108664 0.0973425 0.23621
22717 6 0.115849 0.0936251 0.216065
22685 7 0.0743795 0.10196 0.19181
25506 7 0.06567 0.0328277 0.20513
22759 7 0.108178 0.0965192 0.209372
22649 6 0.0822591 0.0911552 0.195682
25171 1 0.00903026 0.0384354 0.233914
22684 7 0.0770542 0.0776467 0.19248
25230 5 0.0703482 0.00649543 0.242942
22760 7 0.123916 0.107848 0.217481
17509 7 0.243076 0.0394941 0.188406
17471 6 0.235113 0.0383203 0.195085
20131 6 0.237247 0.0796951 0.20169
20099 7 0.231894 0.0656177 0.198535
17510 7 0.2428 0.0261986 0.199671
20098 7 0.224072 0.0887312 0.203017
20023 6 0.144542 0.0271669 0.205465
20130 6 0.179312 0.0331965 0.191609
22688 6 0.166467 0.0842084 0.195259
20101 7 0.19561 0.0308552 0.192928
22965 7 0.159864 0.0904252 0.20236
20096 6 0.20129 0.036245 0.21758
20097 6 0.20205 0.108013 0.216641
20133 7 0.213049 0.0993651 0.213236
20134 7 0.20397 0.0363716 0.209812
22673 2 0.15625 0.0575125 0.230132
22675 3 0.157092 0.0651789 0.218039
22676 4 0.159198 0.0325989 0.230619
22679 3 0.1583 0.128025 0.217117
22919 9 0.143611 0.0740801 0.216381
22920 9 0.171258 0.120269 0.217177
22954 7 0.174249 0.0684903 0.196833
20132 7 0.211608 0.121027 0.21802
22678 5 0.174211 0.0674626 0.237713
22677 5 0.132949 0.0630753 0.2343
19990 1 0.208714 0.0345415 0.238017
20119 1 0.20231 0.0989479 0.236851
20129 5 0.230584 0.0728926 0.234585
20135 7 0.184152 0.0371864 0.217559
20061 7 0.151348 0.0409412 0.208493
22602 2 0.155295 0.00798149 0.23265
20062 7 0.152455 0.0251364 0.198385
20053 5 0.229174 0.00762533 0.233166
22681 5 0.132286 0.00597554 0.237448
14957 7 0.395624 0.1498 0.205411
22680 5 0.172075 0.124663 0.236897
20365 9 0.253192 0.0279133 0.217528
17578 6 0.281787 0.0739805 0.190976
14918 6 0.338224 0.0631861 0.191129
14959 7 0.34665 0.0626759 0.197793
20051 3 0.25437 0.0122871 0.216878
20124 4 0.257697 0.0998214 0.226768
20050 2 0.254542 0.075246 0.22941
17549 7 0.266216 0.074099 0.193351
20366 9 0.250416 0.0673834 0.213058
20056 3 0.255298 0.0599254 0.219597
17583 7 0.299872 0.0859038 0.204771
17504 3 0.363734 0.119616 0.218896
22918 9 0.150843 0.00554691 0.21561
17503 6 0.299939 0.0219538 0.214642
17544 6 0.305651 0.0876461 0.211951
17582 7 0.319156 0.0795792 0.21171
17501 5 0.331271 0.0637397 0.227816
20057 5 0.27168 0.0660397 0.237418
17497 2 0.354795 0.0603593 0.223276
17495 1 0.301787 0.0358014 0.234099
17438 1 0.306581 0.0963519 0.232109
17500 4 0.358106 0.0339546 0.222495
17499 3 0.357469 0.0730423 0.212587
17813 9 0.358363 0.089182 0.214159
17456 7 0.284986 0.0168768 0.214417
17457 7 0.307719 0.00881025 0.212077
17502 5 0.372821 0.0701058 0.230787
17421 2 0.353526 0.00993117 0.226789
17506 5 0.330267 0.00889493 0.232338
20054 5 0.269356 0.00674846 0.236034
14952 3 0.460726 0.178387 0.216059
15308 7 0.457011 0.0318598 0.188314
12407 7 0.473767 0.117826 0.189857
12291 6 0.446803 0.0773833 0.191655
14884 6 0.448993 0.0206313 0.193507
12329 7 0.456645 0.0912691 0.192535
15297 7 0.460541 0.00646415 0.193876
12366 6 0.47586 0.109349 0.196263
12328 7 0.452378 0.0681425 0.198033
15303 9 0.397988 0.0414486 0.207618
14868 8 0.439536 0.0299589 0.208028
14905 7 0.392399 0.0770704 0.213331
14951 6 0.40737 0.0842464 0.212716
14875 4 0.45172 0.0539686 0.21449
14904 7 0.41874 0.0733164 0.214819
14874 3 0.409541 0.0329178 0.212351
14870 5 0.448571 0.00902848 0.217387
14954 5 0.433064 0.0655505 0.229385
14869 2 0.456018 0.0692231 0.22391
14945 2 0.454304 0.119493 0.223542
14948 4 0.457819 0.0941551 0.221729
14876 5 0.474191 0.0625091 0.231931
14943 1 0.40205 0.0957912 0.232454
14815 1 0.404906 0.0364465 0.232439
14873 5 0.470922 0.00303249 0.235138
12408 7 0.46659 0.11659 0.20139
14949 5 0.43134 0.120615 0.228519
25366 1 0.00217981 0.224478 0.234628
25347 7 0.0150887 0.12841 0.185893
25512 9 0.0101184 0.15908 0.208098
25473 9 0.0685527 0.248136 0.212184
25302 5 0.0743576 0.127059 0.240665
25299 5 0.0599037 0.139348 0.222336
25507 7 0.0662312 0.170017 0.193558
25518 7 0.0670865 0.142537 0.195915
22742 1 0.101387 0.1599 0.238917
25376 5 0.0317049 0.192744 0.235148
25381 7 0.0203218 0.244537 0.21727
25371 4 0.0563065 0.225102 0.22772
25368 2 0.055869 0.24996 0.228029
25343 6 0.00967219 0.233227 0.213818
25314 6 0.0690005 0.158317 0.200255
25304 4 0.0566375 0.182797 0.222442
25303 3 0.0203994 0.160128 0.214876
25298 2 0.0556292 0.200192 0.231316
25297 8 0.0521664 0.160573 0.213198
22960 9 0.0970307 0.209901 0.215002
22718 6 0.10644 0.167614 0.217933
25242 1 0.00729418 0.162382 0.2338
25305 5 0.0724841 0.194992 0.240341
22751 3 0.109543 0.218953 0.218769
22690 1 0.108084 0.225949 0.237723
22758 7 0.117537 0.179911 0.217068
22757 7 0.0992934 0.165711 0.211236
22754 5 0.130776 0.126907 0.233451
22955 7 0.122685 0.215661 0.195618
22722 7 0.137913 0.168683 0.199429
22762 6 0.134158 0.20539 0.200686
22966 7 0.150035 0.203722 0.195776
22745 8 0.14045 0.219099 0.214467
20125 5 0.231664 0.132161 0.232321
20169 7 0.245747 0.20768 0.19419
22674 2 0.153595 0.135436 0.229533
20203 6 0.238259 0.208831 0.200756
20166 6 0.190199 0.20082 0.19792
20170 7 0.223663 0.203671 0.199279
20206 7 0.187215 0.216555 0.199299
22755 6 0.13858 0.153057 0.198356
22721 7 0.148192 0.147211 0.203861
22750 5 0.172825 0.195135 0.240217
20165 6 0.200168 0.20899 0.218405
20207 7 0.187892 0.200117 0.215067
20208 7 0.210131 0.211217 0.211956
22744 2 0.153854 0.184623 0.23363
22747 5 0.150512 0.19872 0.223794
22748 4 0.158619 0.16066 0.231439
22752 4 0.151633 0.243379 0.219799
20190 1 0.200082 0.220702 0.237689
20067 1 0.207585 0.161158 0.237601
22749 5 0.129871 0.186748 0.238519
20197 5 0.229503 0.245976 0.235165
20202 5 0.232093 0.19026 0.233403
20205 7 0.189853 0.201045 0.189871
20368 9 0.248189 0.191529 0.211949
20121 2 0.254475 0.125621 0.227821
20192 2 0.252656 0.246213 0.229377
20367 9 0.258331 0.152085 0.217099
20123 3 0.258689 0.136253 0.216767
20122 2 0.254633 0.1962 0.228473
17584 6 0.359808 0.211362 0.195683
20127 3 0.257114 0.183159 0.217345
17651 6 0.285059 0.203659 0.194003
17814 9 0.372034 0.128813 0.214351
17861 7 0.348748 0.220624 0.200955
20136 6 0.263037 0.151571 0.195956
17505 5 0.372939 0.129388 0.237764
20196 4 0.257205 0.221099 0.226995
17577 5 0.331327 0.125265 0.231669
20126 5 0.273863 0.131981 0.235028
20413 7 0.259163 0.164821 0.201354
17580 7 0.299983 0.22054 0.205252
20402 7 0.264049 0.137699 0.20093
17498 2 0.35519 0.132833 0.228872
17581 7 0.319125 0.233835 0.210714
17569 2 0.355794 0.183754 0.228305
17567 1 0.302582 0.159963 0.235021
17515 1 0.306206 0.222638 0.232841
17573 5 0.332119 0.191431 0.231106
17545 6 0.305927 0.224741 0.21228
20128 5 0.273972 0.188804 0.235657
17571 3 0.361689 0.193353 0.216776
17572 4 0.352941 0.158231 0.227299
17575 3 0.353467 0.246094 0.212785
17815 9 0.355939 0.208093 0.215832
17574 5 0.373481 0.191107 0.235991
17850 7 0.360297 0.196164 0.199942
14946 2 0.45332 0.19485 0.225631
15030 7 0.385903 0.235707 0.215355
15020 4 0.455282 0.219907 0.224116
14886 1 0.408377 0.157931 0.233299
14992 6 0.39668 0.224573 0.213702
15015 1 0.401295 0.222358 0.233589
12352 7 0.494617 0.133411 0.207029
15026 6 0.377441 0.150167 0.191602
15261 9 0.458504 0.148859 0.21414
14958 7 0.419573 0.145449 0.210311
15031 7 0.385785 0.21299 0.210684
15262 9 0.450247 0.181132 0.210063
14950 5 0.472117 0.126888 0.231555
15025 5 0.430483 0.187943 0.229952
14953 5 0.470606 0.188161 0.234143
15017 2 0.451305 0.245446 0.224027
22670 7 0.180342 0.0050787 0.10907
25458 9 0.0260512 0.00622322 0.125601
20014 3 0.261403 0.0015614 0.173993
15011 7 0.437883 0.246518 0.103442
22709 2 0.163119 0.249672 0.166662
22738 7 0.132341 0.246413 0.113312
14872 5 0.428565 0.000866227 0.232571
25178 3 0.0116944 0.0313067 0.273088
25245 3 0.0195636 0.108152 0.275485
25256 7 0.0907188 0.0614625 0.281683
25257 7 0.0924919 0.0849634 0.278618
25288 6 0.0800355 0.073253 0.279437
25497 9 0.0158067 0.0983654 0.281192
25251 5 0.0101858 0.0391029 0.253544
25248 5 0.0480921 0.101429 0.261577
25247 5 0.00618356 0.10298 0.256049
25246 4 0.0198736 0.0698586 0.26609
25243 2 0.023518 0.0959463 0.264335
25224 1 0.0793715 0.0679963 0.258819
25179 5 0.0480567 0.0385746 0.263173
25173 2 0.022791 0.0450967 0.263632
22624 5 0.1099 0.0361533 0.25995
25496 9 0.0103632 0.0414342 0.279514
22699 5 0.110152 0.0947958 0.257564
24655 7 0.0870809 0.0753959 0.308579
25170 1 0.0734261 0.00574348 0.263137
25184 7 0.0925585 0.0198746 0.284483
25218 6 0.0788033 0.0106044 0.284133
22622 3 0.122355 0.0463619 0.2787
1860 9 0.00716833 0.13329 0.415613
22626 3 0.123014 0.0994381 0.277875
22623 4 0.122178 0.00417853 0.271711
22944 9 0.124717 0.0841135 0.279475
22943 9 0.136412 0.0467262 0.282759
19999 4 0.221675 0.0285137 0.272258
22632 7 0.177805 0.0894366 0.315807
22666 6 0.18816 0.0797851 0.31159
19993 2 0.225344 0.043544 0.263068
20068 2 0.228696 0.0938361 0.265005
20071 4 0.223844 0.0687077 0.2651
22620 2 0.127476 0.0293127 0.268751
22621 2 0.128629 0.103104 0.265341
22625 5 0.15133 0.0345135 0.264913
22633 7 0.136104 0.0195298 0.289711
22665 6 0.149572 0.0273922 0.292402
22634 7 0.144079 0.0313004 0.299691
22631 7 0.181536 0.0818664 0.30451
19468 3 0.244717 0.0981956 0.310443
19714 9 0.229862 0.0568871 0.308765
19398 3 0.237031 0.0432996 0.311148
22627 5 0.151506 0.0937511 0.262373
22618 1 0.174567 0.0674775 0.258871
20072 5 0.208932 0.102669 0.258655
20070 3 0.227059 0.10162 0.277015
20416 7 0.234847 0.0207812 0.299395
20391 9 0.2123 0.10205 0.279561
20076 5 0.208842 0.0377105 0.254279
22031 7 0.194101 0.00865364 0.303003
20409 9 0.176864 0.00891181 0.287382
19992 8 0.218252 0.005186 0.281373
22600 1 0.180524 0.00443498 0.261977
19998 3 0.186473 0.0055729 0.280988
20065 6 0.233127 0.0055405 0.2944
19715 9 0.232213 0.106768 0.308676
20073 5 0.251615 0.100158 0.260462
21991 6 0.199025 0.0027289 0.310372
20000 5 0.248331 0.0368415 0.258887
17448 5 0.349671 0.0972255 0.256592
17440 8 0.315707 0.0657208 0.278772
17446 3 0.284135 0.0661922 0.276582
17857 9 0.274275 0.0770538 0.281374
17513 6 0.332733 0.0652663 0.291597
17863 7 0.330368 0.0766125 0.297981
17864 7 0.335811 0.0493866 0.296044
17162 9 0.350049 0.101214 0.30573
19365 6 0.289774 0.0712177 0.309098
16842 3 0.344188 0.0447718 0.31142
16846 3 0.342873 0.0919544 0.312017
20005 7 0.275703 0.0296719 0.278957
19404 7 0.288968 0.0827396 0.303746
20040 6 0.28007 0.015312 0.275783
20004 7 0.295567 0.019616 0.273381
20082 7 0.259289 0.121536 0.281576
17442 5 0.324738 0.0459039 0.269662
17447 4 0.320439 0.087299 0.269417
17443 4 0.328141 0.00569026 0.263587
17439 2 0.329426 0.0308173 0.260412
17441 2 0.327192 0.103726 0.260849
20048 1 0.28032 0.0681521 0.257549
19989 1 0.272236 0.00505618 0.255825
17445 5 0.351523 0.0374878 0.255418
17379 7 0.370547 0.00875458 0.282209
17488 6 0.365035 0.120256 0.29936
17524 5 0.310523 0.102181 0.251608
19403 7 0.273293 0.0681836 0.309196
16854 7 0.384357 0.0199963 0.30424
17437 1 0.374476 0.0647085 0.252455
17453 7 0.381019 0.123459 0.300675
14903 7 0.466904 0.0870616 0.297824
14935 6 0.478774 0.0817484 0.293466
17454 7 0.434744 0.041779 0.294226
17487 6 0.43717 0.0562698 0.297148
17455 7 0.452335 0.0587823 0.29537
14609 9 0.438734 0.0842047 0.307346
14608 9 0.441428 0.0351993 0.310601
14290 3 0.44313 0.0975159 0.311176
16851 7 0.420822 0.120467 0.30866
15312 7 0.436376 0.111282 0.294725
14827 7 0.477101 0.0635458 0.28109
14860 6 0.475932 0.0623771 0.273227
15286 9 0.424368 0.0125347 0.272755
14828 7 0.460819 0.0653632 0.270795
14890 5 0.420625 0.105256 0.267313
14822 3 0.420171 0.0279564 0.272479
16812 6 0.395151 0.00915707 0.307938
17412 6 0.378056 0.00942506 0.275609
17380 7 0.391936 0.0175926 0.276821
14902 7 0.485961 0.0945933 0.291019
14891 4 0.432227 0.0645117 0.262388
14817 2 0.427262 0.0397193 0.262008
14887 2 0.428475 0.0894097 0.258775
14823 5 0.449249 0.0306896 0.257987
17418 1 0.379758 0.00242992 0.254877
14893 5 0.450711 0.0978757 0.254638
22280 9 0.182159 0.00374285 0.403775
14897 5 0.408836 0.0359417 0.253801
15305 9 0.374084 0.124121 0.282197
14894 3 0.384967 0.123177 0.275842
14301 7 0.496944 0.0775575 0.306172
14866 1 0.480564 0.0638373 0.253127
14972 5 0.411547 0.159079 0.251342
25515 7 0.0260158 0.12226 0.292387
25254 7 0.0944922 0.135368 0.281268
25289 6 0.0790252 0.130375 0.28138
25255 7 0.0722739 0.132018 0.288985
25504 7 0.0300389 0.147841 0.294075
25241 1 0.0742265 0.130291 0.260444
25313 6 0.0360447 0.132797 0.297439
25498 9 0.0202692 0.141719 0.272879
25249 3 0.0175746 0.157294 0.273
25319 3 0.0237389 0.228752 0.275196
25330 7 0.0951894 0.182251 0.282451
25331 7 0.0987055 0.206507 0.280014
25360 6 0.0874788 0.195048 0.279359
25499 9 0.0216698 0.245985 0.274613
25322 5 0.0500597 0.228037 0.259761
25321 5 0.00682213 0.226336 0.255512
25320 4 0.0264119 0.194033 0.263415
25317 2 0.0254473 0.219512 0.263298
25295 1 0.0816914 0.193845 0.259122
25250 5 0.05 0.160946 0.259788
25244 2 0.026292 0.169121 0.262649
22695 5 0.109163 0.16119 0.260085
22773 5 0.108593 0.226004 0.258833
1996 7 0.0436834 0.233905 0.288179
1997 7 0.0464144 0.236503 0.300022
2031 6 0.0533975 0.240613 0.292894
25325 5 0.010016 0.163308 0.253659
22319 9 0.0893195 0.196181 0.305905
22697 3 0.12298 0.226646 0.278435
24652 7 0.0906562 0.132443 0.307408
22945 9 0.127823 0.1422 0.28316
22952 7 0.139415 0.204544 0.289049
22693 3 0.119763 0.152656 0.279106
22088 8 0.131382 0.195836 0.309332
22946 9 0.12431 0.239192 0.283286
22705 7 0.194292 0.151594 0.275877
22761 6 0.144071 0.1923 0.29516
22694 4 0.131999 0.12808 0.263692
22963 7 0.160597 0.189416 0.293068
22672 1 0.179956 0.129015 0.258342
22736 6 0.180409 0.143029 0.278456
21992 6 0.20161 0.138533 0.310511
22030 7 0.201072 0.129544 0.304336
22704 7 0.167404 0.153231 0.276619
22029 7 0.215837 0.146233 0.309238
20142 4 0.223651 0.192483 0.26691
20147 5 0.209201 0.159221 0.258264
22696 5 0.150727 0.165191 0.266315
20074 3 0.226783 0.155711 0.276804
20141 3 0.219736 0.22873 0.277143
20393 9 0.210727 0.2415 0.274964
22702 7 0.194372 0.207249 0.280557
22703 7 0.193141 0.184759 0.285542
22737 6 0.183232 0.195204 0.282473
22691 2 0.128315 0.152996 0.266981
22692 2 0.127204 0.233878 0.26646
22062 6 0.228396 0.19208 0.293491
22102 7 0.227116 0.179263 0.288471
22103 7 0.232147 0.203849 0.288979
22100 7 0.206263 0.198933 0.305686
19716 9 0.238232 0.177395 0.306246
22063 6 0.195534 0.196781 0.310853
19472 3 0.241307 0.163523 0.310373
22101 7 0.187959 0.183037 0.307895
20069 2 0.228803 0.167238 0.265595
22698 5 0.149551 0.225297 0.262546
22689 1 0.174629 0.194113 0.262131
20392 9 0.236272 0.142709 0.277452
20139 2 0.227308 0.217135 0.26593
20143 5 0.210103 0.226122 0.257324
20144 5 0.25002 0.224749 0.262009
11802 6 0.496708 0.208418 0.397878
20113 6 0.270362 0.131615 0.27787
20075 5 0.250481 0.164527 0.259838
20081 7 0.2771 0.138923 0.284372
19480 7 0.293095 0.146768 0.300977
20066 1 0.277109 0.131785 0.256957
17517 2 0.329202 0.229569 0.260853
17516 2 0.330929 0.153948 0.263046
19439 6 0.298771 0.136051 0.305885
19479 7 0.314708 0.140038 0.305819
17452 7 0.356901 0.131214 0.304036
17518 3 0.32604 0.165744 0.274237
17522 3 0.327188 0.219002 0.272389
17839 9 0.334929 0.158386 0.27956
17840 9 0.338504 0.20748 0.273394
20079 7 0.300947 0.205372 0.276708
20080 7 0.301495 0.180982 0.280395
20114 6 0.290512 0.192968 0.278062
1402 3 0.00034514 0.191208 0.426235
17164 9 0.343306 0.237007 0.302588
19440 6 0.308669 0.192303 0.306229
19478 7 0.297752 0.195848 0.300849
19477 7 0.322894 0.198155 0.303996
16920 3 0.345288 0.226283 0.3082
17163 9 0.333015 0.171895 0.307486
16916 3 0.346889 0.164186 0.307642
17519 4 0.328674 0.128093 0.264365
17521 5 0.354203 0.161891 0.259937
20120 1 0.280271 0.193699 0.257846
17523 5 0.350883 0.220616 0.256701
17520 5 0.311307 0.160994 0.255454
17529 7 0.369458 0.202042 0.282682
17514 1 0.377228 0.192179 0.256725
16928 7 0.37249 0.208321 0.307242
16927 7 0.373866 0.183818 0.308282