ITEM: TIMESTEP
618000
ITEM: NUMBER OF ATOMS
25520
ITEM: BOX BOUNDS pp pp pp
-3.8774777570352759e-01 6.0086291365704916e+01
-1.9433768594823022e+00 5.9113662133481000e+01
-1.2641929273799104e+01 1.1191766167980867e+02
ITEM: ATOMS id type xs ys zs
25182 6 0.0902423 0.0172028 0.154562
25252 6 0.116425 0.0805207 0.15266
25214 3 0.0444507 0.0491326 0.157682
25287 5 0.0351043 0.0551295 0.177476
25283 5 0.0714664 0.121419 0.170819
25282 5 0.0330531 0.114059 0.177269
25281 4 0.0519208 0.0861079 0.16654
25277 2 0.048979 0.110775 0.168185
25215 5 0.0729949 0.0527223 0.1728
25209 2 0.0504242 0.0607888 0.168399
25188 1 0.102667 0.0851104 0.17205
25458 9 0.0567279 0.0406301 0.154936
25206 1 0.0973266 0.0218094 0.17453
2433 1 0.00407211 0.0218449 0.178138
25220 7 0.0898348 0.0155191 0.146967
25292 7 0.126962 0.0683838 0.151408
25219 7 0.0760286 0.0078204 0.155882
25293 7 0.124745 0.0938959 0.150841
22735 5 0.131743 0.117521 0.173289
22660 5 0.131257 0.0563581 0.174155
22905 9 0.13962 0.0366763 0.152582
22662 3 0.145196 0.113524 0.154533
22658 3 0.148624 0.0482141 0.155261
22656 2 0.150334 0.0459719 0.167917
20112 5 0.23244 0.0522472 0.174342
22663 5 0.173247 0.121739 0.169394
22654 1 0.19787 0.0861256 0.171515
22661 5 0.174226 0.0538296 0.170368
22659 4 0.148796 0.0212814 0.169925
22563 1 0.204313 0.0229649 0.1744
22629 6 0.214894 0.0185119 0.154531
22630 6 0.204733 0.0753036 0.151789
22667 7 0.215979 0.0635473 0.151958
22668 7 0.191404 0.0670147 0.150159
20108 5 0.234774 0.114092 0.175039
22669 7 0.226428 0.0289932 0.156908
22670 7 0.222652 0.00566928 0.156001
20106 3 0.247194 0.117724 0.155624
20036 3 0.248088 0.0514409 0.155398
22906 9 0.158717 0.113174 0.149911
20353 9 0.244872 0.105604 0.150835
20107 4 0.254978 0.0848779 0.166562
20104 2 0.253491 0.110056 0.167142
20031 2 0.251808 0.0600102 0.167417
20352 9 0.261015 0.0436057 0.153488
22517 7 0.257701 0.00350765 0.133493
20118 7 0.321939 0.0646524 0.152251
20117 7 0.324538 0.0897909 0.154563
20077 6 0.313353 0.0785457 0.15278
17480 3 0.345125 0.0450164 0.15539
17799 9 0.356719 0.0382721 0.150813
17478 2 0.352586 0.0418907 0.167388
20109 5 0.275787 0.120199 0.169345
17482 5 0.334138 0.0517673 0.174676
20037 5 0.275125 0.0505204 0.170451
20011 1 0.303328 0.0835264 0.172929
20028 1 0.299708 0.0200833 0.172512
17481 4 0.351095 0.016961 0.168989
17484 3 0.350657 0.109898 0.154714
20003 6 0.298289 0.00673309 0.153318
20042 7 0.289431 0.00321615 0.147223
17560 5 0.330647 0.112276 0.171953
17485 5 0.374809 0.115346 0.170281
17483 5 0.375818 0.0506394 0.169683
17479 2 0.351118 0.121651 0.165698
17800 9 0.343947 0.119614 0.149429
17489 7 0.381376 0.096492 0.151508
17490 7 0.401529 0.0879747 0.146906
17451 6 0.394122 0.0878359 0.153532
14856 3 0.449737 0.0422657 0.158643
15246 9 0.46494 0.0360414 0.157297
14929 4 0.449246 0.0817324 0.166735
14926 2 0.453593 0.105955 0.169901
14851 2 0.451423 0.0561234 0.169364
14931 5 0.477363 0.10957 0.174201
14857 5 0.474718 0.0511605 0.173604
17476 1 0.398286 0.0823181 0.173576
14934 5 0.432548 0.0499585 0.176977
14930 5 0.435324 0.112033 0.177837
17384 1 0.404777 0.0182331 0.174331
17450 6 0.412732 0.0197298 0.153356
17492 7 0.424161 0.0315713 0.152035
14848 1 0.49838 0.0180594 0.175468
15247 9 0.447119 0.112185 0.153555
17491 7 0.420119 0.00547992 0.151148
14928 3 0.451402 0.121317 0.159621
14826 6 0.498981 0.0216982 0.155244
14862 7 0.494038 0.0157136 0.148715
25280 5 0.0407436 0.125437 0.159281
25290 7 0.114998 0.172248 0.154873
2033 7 0.039358 0.142651 0.132159
25253 6 0.102138 0.162806 0.15283
2032 7 0.0447983 0.168796 0.135689
1995 6 0.0346018 0.155095 0.137732
25275 1 0.0952558 0.149652 0.172681
25278 8 0.0291762 0.14849 0.152507
22957 9 0.0926143 0.2333 0.154469
22732 3 0.101948 0.218151 0.155579
25285 4 0.0399559 0.168894 0.160894
25359 5 0.0307547 0.180972 0.179057
25356 5 0.0708421 0.239666 0.174139
25354 4 0.0421641 0.211634 0.167435
25351 2 0.0472966 0.23601 0.170824
25286 5 0.0707644 0.180606 0.172734
25279 2 0.0464193 0.186142 0.169473
25259 1 0.102695 0.212039 0.175037
25355 5 0.028993 0.244977 0.177957
25394 6 0.0704539 0.188807 0.145626
25291 7 0.0883985 0.172692 0.149529
25432 7 0.059895 0.184879 0.151887
25433 7 0.0774967 0.202124 0.147518
25284 3 -1.9639e-05 0.147991 0.158135
25353 3 0.0416486 0.249851 0.160509
2103 7 0.016302 0.219277 0.156422
1933 1 0.00241328 0.147925 0.177671
2065 6 6.4067e-05 0.220337 0.156688
9739 6 0.468027 0.242545 0.227164
22657 2 0.149929 0.125199 0.165144
1962 7 0.148857 0.210077 0.13216
22741 7 0.218917 0.157613 0.151781
22726 8 0.131248 0.215928 0.150617
1963 7 0.145971 0.236464 0.133946
22740 7 0.218668 0.132622 0.150383
1927 6 0.136878 0.220805 0.135582
22730 5 0.131653 0.179392 0.175998
22700 6 0.207578 0.144894 0.151156
22636 1 0.201402 0.147971 0.171092
22729 4 0.147418 0.151137 0.163629
22733 4 0.14297 0.235311 0.159803
20188 7 0.173586 0.228084 0.156783
20189 7 0.192926 0.243735 0.15206
20148 6 0.1897 0.228026 0.153829
22728 5 0.140738 0.190565 0.157481
22725 2 0.147637 0.175713 0.166549
20178 5 0.235639 0.238608 0.176378
20183 5 0.23103 0.177498 0.172895
22723 1 0.198835 0.209784 0.171898
22731 5 0.172479 0.17901 0.169728
20110 3 0.247099 0.172523 0.15433
22734 5 0.171969 0.242044 0.172457
22807 5 0.132297 0.241119 0.17854
20177 4 0.24778 0.210451 0.164807
20173 2 0.25193 0.234218 0.167345
22727 2 0.148176 0.248982 0.170078
20105 2 0.250832 0.184725 0.165084
20354 9 0.259715 0.163406 0.152399
17555 4 0.346813 0.146492 0.163844
20102 1 0.299806 0.14659 0.171116
17554 3 0.34538 0.181927 0.152739
17801 9 0.3433 0.197585 0.153095
17558 3 0.345444 0.230508 0.15566
17552 2 0.350872 0.171425 0.163658
17556 5 0.331525 0.178132 0.171019
20111 5 0.274025 0.179119 0.168584
20084 1 0.303563 0.207854 0.173802
20179 5 0.276062 0.239653 0.170469
17631 5 0.333061 0.239557 0.175005
17557 5 0.373651 0.178315 0.167794
17553 2 0.349292 0.245683 0.166076
17802 9 0.335015 0.237553 0.151022
17559 5 0.373209 0.240301 0.169519
14939 7 0.492226 0.163523 0.158396
17565 7 0.41569 0.162672 0.15445
17563 7 0.399195 0.192364 0.14574
17564 7 0.423195 0.194533 0.148443
17566 7 0.391033 0.167243 0.159489
14938 7 0.476507 0.202431 0.143759
14937 7 0.457017 0.194544 0.15008
17525 6 0.402246 0.154489 0.156412
17459 1 0.404795 0.144177 0.176088
17526 6 0.408323 0.198582 0.151374
14899 6 0.461475 0.203097 0.143641
15248 9 0.451311 0.152113 0.158665
15002 3 0.452582 0.238651 0.155931
14932 3 0.449246 0.167573 0.157001
15000 2 0.4524 0.229544 0.167321
15003 4 0.449398 0.204267 0.166672
14927 2 0.453 0.179715 0.168469
15005 5 0.47629 0.235092 0.170449
14933 5 0.476472 0.173761 0.171357
15004 5 0.434343 0.239368 0.174041
17550 1 0.399487 0.208567 0.171212
15008 5 0.434051 0.172034 0.176026
15249 9 0.456592 0.225134 0.150506
25203 7 0.0490605 0.0134464 0.223698
25202 7 0.0711966 0.00633902 0.222855
25236 7 0.0339183 0.0661557 0.243956
25237 7 0.038832 0.0416206 0.24453
25471 9 0.0695244 0.0150088 0.24434
25198 5 0.0968068 0.0844662 0.191385
25195 5 0.0960411 0.0227024 0.194784
25268 5 0.0563105 0.0848737 0.196729
25258 1 0.0271592 0.116128 0.197079
25207 1 0.031887 0.053011 0.197567
25191 2 0.0799659 0.0925497 0.199879
25263 4 0.0786798 0.117149 0.202885
25197 4 0.0776767 0.0783862 0.209965
25192 5 0.0761653 0.0339044 0.211791
25196 3 0.0376113 0.0576569 0.217176
25190 8 0.0678286 0.0573304 0.218762
25510 9 0.0265746 0.056035 0.224009
25517 7 0.082281 0.0786334 0.235202
25240 6 0.0845227 0.0625296 0.232185
22685 7 0.0816956 0.109429 0.219147
25506 7 0.0787428 0.0524551 0.238739
22649 6 0.0861045 0.115927 0.225797
25194 5 0.0544176 0.0217178 0.198925
25189 2 0.0776791 0.0170888 0.202775
25308 6 0.0229339 0.111495 0.21833
25472 9 0.0524817 0.0948217 0.243202
25272 7 0.0328815 0.111625 0.22444
25201 6 0.0261212 0.0516481 0.244026
25271 7 0.00956826 0.105673 0.22159
22684 7 0.0718127 0.117636 0.229543
22687 7 0.12622 0.0504598 0.24463
25309 7 0.0274558 0.120276 0.241321
25270 6 0.042496 0.12035 0.238561
22760 7 0.104526 0.120778 0.239717
25231 3 0.0590346 0.0838637 0.247852
25205 7 0.00623464 0.0025406 0.222352
22650 7 0.116972 0.0624111 0.220676
25227 3 0.0659614 0.0265172 0.249043
22717 6 0.106934 0.124697 0.246927
22683 6 0.128146 0.0574265 0.215416
25235 6 0.0598081 0.00744164 0.228317
22958 9 0.119009 0.121307 0.217232
25239 7 0.0133151 0.000485022 0.238599
17474 7 0.334626 -0.000564361 0.22378
14958 7 0.39695 0.177791 0.234969
22759 7 0.103368 0.139497 0.247094
22651 7 0.141366 0.0569786 0.219985
22635 1 0.124127 0.0535066 0.195317
22655 1 0.129005 0.115648 0.193301
20062 7 0.142014 0.0775752 0.245265
20023 6 0.139371 0.0698334 0.238395
20134 7 0.21579 0.0739356 0.242837
20061 7 0.15441 0.0650246 0.236343
22643 5 0.194171 0.0842326 0.191555
22572 5 0.195962 0.0213877 0.194875
20083 1 0.224566 0.113724 0.192518
20029 1 0.229396 0.054394 0.195492
22642 5 0.152762 0.0790931 0.194963
20063 7 0.182841 0.0479049 0.223914
22637 2 0.176019 0.0779211 0.199529
22641 4 0.17923 0.0537586 0.202852
22565 2 0.178487 0.0283755 0.202948
22640 5 0.172338 0.094052 0.208833
20060 6 0.225829 0.05852 0.215839
20022 6 0.177273 0.0614579 0.226695
20064 7 0.180515 0.0719608 0.220467
22647 5 0.155701 0.0202796 0.198824
20096 6 0.209643 0.059795 0.243967
22571 3 0.182251 0.0184772 0.214508
22638 8 0.16143 0.115965 0.21642
22644 3 0.132047 0.116277 0.211923
20135 7 0.196195 0.0595267 0.239195
22965 7 0.16858 0.0963781 0.234728
22577 7 0.145828 0.0346575 0.233434
20025 7 0.229609 0.0700901 0.220781
22688 6 0.169537 0.113428 0.231521
22612 6 0.148729 0.0186135 0.232649
22576 7 0.162115 0.0181262 0.228068
20024 7 0.227667 0.0453579 0.220618
22918 9 0.163258 0.0185193 0.24784
22931 9 0.194091 0.00943696 0.214688
20130 6 0.2292 0.0991783 0.232272
17471 6 0.227224 0.0217835 0.233103
17510 7 0.219058 0.0349812 0.235478
20133 7 0.19331 0.108847 0.246604
20097 6 0.206499 0.11735 0.248808
22613 7 0.126837 0.00419818 0.240273
17509 7 0.24 0.0232575 0.238148
20101 7 0.244898 0.101 0.234088
20132 7 0.215874 0.112214 0.24264
20100 7 0.227555 0.106115 0.225037
22954 7 0.15851 0.120645 0.237059
20365 9 0.269465 0.0455731 0.248872
20366 9 0.274599 0.0919355 0.245574
20095 5 0.254726 0.0806665 0.197036
20016 5 0.25218 0.0240726 0.197681
17456 7 0.322687 0.0720809 0.244445
20020 5 0.296857 0.0802111 0.194358
20017 5 0.295023 0.0209957 0.192906
17477 1 0.329552 0.115271 0.19457
17458 1 0.325306 0.0514501 0.193919
17464 5 0.352956 0.0880589 0.195909
20013 2 0.276899 0.0876964 0.200894
20379 9 0.289952 0.0707053 0.21418
20089 4 0.28051 0.112773 0.201032
20019 3 0.278888 0.081613 0.21323
20378 9 0.294193 0.0322232 0.211081
17466 6 0.322196 0.0482714 0.213931
17493 7 0.324518 0.0606233 0.219467
17494 7 0.325297 0.0340923 0.218165
14960 7 0.341714 0.0888514 0.230887
14918 6 0.338008 0.0864203 0.222905
14959 7 0.351447 0.0888211 0.219332
17469 5 0.353337 0.015867 0.197384
20014 3 0.280567 0.0244103 0.211303
20012 2 0.275289 0.0145359 0.200056
17503 6 0.309208 0.0636925 0.246304
17499 3 0.359927 0.0843657 0.244826
17457 7 0.296979 0.0721522 0.242643
17473 7 0.333598 0.11533 0.220257
17583 7 0.330408 0.103725 0.248502
14847 7 0.371517 0.0291764 0.237351
14846 7 0.371949 0.0548102 0.235448
17467 3 0.380429 0.141493 0.215252
20051 3 0.265382 0.0299711 0.247833
17511 7 0.277858 0.00539155 0.223711
17813 9 0.371388 0.0958692 0.243736
14878 6 0.376838 0.0407895 0.232654
17548 7 0.27722 0.0976184 0.226407
17578 6 0.278207 0.106005 0.23318
17544 6 0.321831 0.117321 0.246037
17549 7 0.293449 0.10899 0.233906
17825 9 0.375531 0.0299892 0.218241
17512 7 0.276622 0.00616129 0.236567
14904 7 0.386253 0.129612 0.241216
17463 4 0.373248 0.0516209 0.201576
17460 2 0.374978 0.0769217 0.200282
17386 2 0.374969 0.0271503 0.201344
17462 3 0.384615 0.0851631 0.211091
17826 9 0.392911 0.0730111 0.214587
17391 3 0.381955 0.020925 0.212873
15272 9 0.479588 0.0119986 0.220426
14840 5 0.495141 0.0792201 0.19817
17465 5 0.392255 0.0805612 0.191686
14906 1 0.427763 0.111064 0.196671
17392 5 0.394075 0.0196854 0.19387
14849 1 0.428244 0.051501 0.197137
14917 5 0.455274 0.0800358 0.202699
14837 5 0.452821 0.0221496 0.200983
14911 4 0.477701 0.113248 0.203328
14834 2 0.477601 0.0887689 0.205658
14839 3 0.484884 0.0809185 0.216925
14955 6 0.416131 0.0513162 0.216851
15273 9 0.481028 0.09262 0.222502
14922 7 0.404897 0.0392181 0.2187
14923 7 0.427157 0.0496686 0.222869
15308 7 0.463595 0.0625958 0.223177
14884 6 0.456294 0.0500652 0.228253
15297 7 0.466629 0.0360543 0.226662
15303 9 0.405476 0.0495522 0.240149
14868 8 0.448473 0.0550639 0.242778
14835 3 0.48581 0.0222729 0.215207
14874 3 0.41743 0.0547876 0.24552
14833 2 0.476964 0.0158578 0.203927
14838 5 0.494583 0.0189021 0.195289
14941 7 0.411947 0.0966866 0.217379
12366 6 0.479693 0.108183 0.233354
14951 6 0.39921 0.12106 0.243705
12407 7 0.476084 0.0968791 0.238472
14905 7 0.408063 0.122982 0.237863
14875 4 0.458716 0.07741 0.249897
12408 7 0.467416 0.117533 0.234001
14914 6 0.418394 0.111366 0.216679
25343 6 0.000773882 0.243798 0.245752
25345 7 0.00583213 0.231384 0.219918
25310 7 0.0486498 0.129489 0.244158
25512 9 0.0115585 0.196423 0.243654
25484 9 0.0872777 0.138185 0.218281
25267 5 0.0960468 0.209089 0.194662
25265 5 0.0928239 0.148927 0.192098
25303 3 0.0210513 0.182985 0.246625
25260 2 0.0779896 0.142199 0.202086
25264 5 0.0547031 0.15106 0.199463
25332 1 0.0245487 0.2398 0.199402
25276 1 0.0301452 0.18045 0.198856
25342 5 0.0561666 0.211059 0.200968
25337 4 0.0833074 0.240724 0.204683
25261 2 0.0804418 0.215432 0.203261
25266 3 0.0867554 0.205286 0.214474
25262 3 0.0868393 0.150695 0.212576
25485 9 0.0928899 0.190764 0.213496
22720 7 0.112539 0.166891 0.214553
25377 6 0.0272867 0.169025 0.218918
25507 7 0.0750924 0.192347 0.227996
25518 7 0.0586956 0.171805 0.224308
25314 6 0.0669428 0.177881 0.231279
25297 8 0.0515185 0.179901 0.244744
22751 3 0.119385 0.244294 0.246394
22758 7 0.0974071 0.174985 0.240835
22718 6 0.108075 0.173118 0.246397
25348 7 0.0238693 0.175028 0.226162
25347 7 0.0234809 0.153508 0.219991
25378 6 0.0185763 0.241132 0.219573
22791 6 0.0800894 0.236929 0.231886
22829 7 0.0788843 0.223495 0.235261
22830 7 0.0809832 0.231804 0.224361
25382 7 0.00499089 0.245528 0.238161
22825 6 0.124444 0.240478 0.216497
22756 6 0.12802 0.172179 0.212522
22757 7 0.121932 0.181541 0.244089
22795 7 0.109273 0.246001 0.216563
22706 1 0.126836 0.177016 0.194236
22960 9 0.106669 0.253226 0.243792
20131 6 0.220082 0.129963 0.211741
20208 7 0.195366 0.232266 0.239571
22796 7 0.127962 0.239888 0.223972
20207 7 0.213634 0.220629 0.245598
20099 7 0.225805 0.144304 0.213496
20098 7 0.204137 0.133342 0.208221
22719 7 0.134512 0.176316 0.219586
22724 1 0.132439 0.239644 0.19742
20167 7 0.204385 0.226282 0.216559
22646 5 0.19463 0.144871 0.190313
22713 5 0.195725 0.208787 0.193212
20103 1 0.228571 0.175998 0.194088
22716 5 0.154235 0.143548 0.192951
20154 1 0.226205 0.237187 0.195085
22722 7 0.150645 0.172708 0.23902
22645 4 0.176664 0.136104 0.208324
22712 5 0.156149 0.210784 0.1973
22639 2 0.175561 0.150744 0.197937
22708 2 0.177668 0.200601 0.200957
22711 4 0.177098 0.175464 0.200354
22710 3 0.183312 0.207247 0.212479
22932 9 0.185583 0.191877 0.216753
20204 6 0.217293 0.235662 0.216139
20092 3 0.233315 0.175567 0.21345
22721 7 0.149137 0.198444 0.240533
20406 9 0.220233 0.179697 0.218231
22745 8 0.150126 0.243532 0.243009
20166 6 0.184789 0.170339 0.224786
20206 7 0.171627 0.175673 0.228573
22755 6 0.145912 0.184892 0.23523
20205 7 0.179657 0.160865 0.218891
22762 6 0.163996 0.24131 0.228793
20169 7 0.207772 0.171814 0.23825
20203 6 0.213366 0.177476 0.245772
20170 7 0.229757 0.172638 0.24547
22966 7 0.162977 0.226516 0.224573
20165 6 0.203174 0.232605 0.246767
1949 1 -0.000317975 0.0841327 0.176057
22920 9 0.175471 0.136747 0.247151
17508 6 0.332351 0.126232 0.214221
17815 9 0.358465 0.234286 0.248518
17571 3 0.351493 0.219323 0.248796
17581 7 0.300361 0.23954 0.23958
17545 6 0.311024 0.240419 0.245676
17582 7 0.332987 0.127483 0.243896
17472 7 0.345863 0.13444 0.212654
20090 5 0.256198 0.144035 0.194045
17504 3 0.360366 0.145494 0.247451
17617 7 0.274761 0.216954 0.224146
20367 9 0.256305 0.133651 0.244142
20164 5 0.254375 0.208721 0.195846
17651 6 0.281661 0.228719 0.228136
20368 9 0.269137 0.222827 0.243503
20091 5 0.298399 0.145754 0.192312
20094 5 0.293923 0.203776 0.19309
17531 1 0.326462 0.175559 0.193733
17551 1 0.329054 0.238359 0.194209
17538 5 0.353328 0.199812 0.194091
17543 5 0.356937 0.142246 0.199302
20085 2 0.27775 0.137723 0.199249
20086 8 0.262602 0.171859 0.217751
20087 2 0.277116 0.21048 0.201764
20159 4 0.282114 0.234546 0.204583
20088 5 0.2738 0.151804 0.209122
20093 4 0.275693 0.196706 0.212051
17547 7 0.306499 0.186561 0.215675
17540 3 0.332758 0.24078 0.212783
17579 6 0.320096 0.177846 0.214344
17546 7 0.313508 0.164225 0.216806
20136 6 0.2762 0.175134 0.231508
20413 7 0.269888 0.186913 0.237589
20402 7 0.278805 0.16085 0.236446
17534 8 0.362832 0.237686 0.215465
17814 9 0.361983 0.154597 0.241339
20127 3 0.262781 0.209861 0.247073
14996 7 0.354243 0.175711 0.225237
20123 3 0.256521 0.148394 0.247127
15026 6 0.369146 0.178884 0.226499
17854 9 0.320023 0.24441 0.218093
17618 7 0.28172 0.24201 0.223167
17580 7 0.323068 0.229386 0.243224
17536 5 0.371688 0.215339 0.207631
14997 7 0.373152 0.184964 0.21977
15030 7 0.424239 0.22603 0.246701
14920 7 0.435447 0.196311 0.218487
14910 3 0.478314 0.145807 0.214951
17539 5 0.393735 0.20701 0.190593
15274 9 0.488946 0.137429 0.218925
15027 6 0.422671 0.244971 0.215425
17533 2 0.37748 0.199082 0.198716
14921 7 0.429661 0.176343 0.223394
12406 7 0.500356 0.241786 0.23816
14912 5 0.453827 0.146836 0.19941
14994 7 0.436846 0.248011 0.218567
14915 3 0.480165 0.207483 0.213787
14952 3 0.468057 0.212949 0.244186
17537 4 0.379041 0.175772 0.203402
12329 7 0.430602 0.131516 0.225242
14985 4 0.479531 0.240241 0.202097
14913 5 0.495953 0.147881 0.196843
14919 6 0.407716 0.175898 0.240706
9776 7 0.470075 0.22909 0.224091
12352 7 0.487894 0.168184 0.244491
14908 2 0.476192 0.1385 0.203123
14956 6 0.426362 0.184416 0.216985
12291 6 0.43812 0.143633 0.228922
17861 7 0.390789 0.232884 0.231324
17827 9 0.379807 0.154087 0.220111
17461 2 0.379086 0.149898 0.203403
14957 7 0.419284 0.166854 0.236975
17584 6 0.379896 0.245618 0.227997
14909 2 0.477209 0.213959 0.201846
15261 9 0.450179 0.144683 0.241481
17468 5 0.397759 0.143594 0.195801
14925 1 0.430651 0.177096 0.196935
14991 5 0.453465 0.207774 0.198631
14992 6 0.415192 0.238126 0.243227
14979 1 0.422646 0.238618 0.194596
12353 7 0.494172 0.189251 0.23863
14942 7 0.40436 0.120712 0.216149
12328 7 0.449712 0.148528 0.223613
15275 9 0.492479 0.198714 0.214933
14916 5 0.496979 0.204919 0.196325
14947 3 0.460193 0.151593 0.246677
15262 9 0.468678 0.2268 0.239975
25200 6 0.00460781 0.000895609 0.245062
22679 3 0.161358 0.143534 0.249436
15031 7 0.425033 0.241714 0.236998
9777 7 0.468724 0.25275 0.221214
14995 7 0.411468 0.247314 0.221231
20008 7 0.213155 0.00079124 0.240983
25178 3 0.025316 0.0532828 0.302551
25245 3 0.0245388 0.112755 0.305641
25251 5 0.0129853 0.0524879 0.28323
25246 4 0.0285275 0.086437 0.290684
25243 2 0.0309812 0.111066 0.293436
25224 1 0.083857 0.0871199 0.288586
25179 5 0.0536697 0.0544688 0.289261
25173 2 0.0300229 0.061487 0.291071
25170 1 0.0795623 0.0256012 0.288999
25232 5 0.0775736 0.0855696 0.267338
25230 5 0.0808019 0.025507 0.267929
22671 1 0.107321 0.0565674 0.267984
25171 1 0.0102998 0.0520229 0.26285
25229 5 0.0372982 0.0227741 0.263008
25306 5 0.035548 0.0855827 0.263924
25226 2 0.0585255 0.0924767 0.259725
25225 2 0.0616385 0.0171373 0.260765
25496 9 0.0268862 0.0375857 0.303264
25288 6 0.0848477 0.0866382 0.308342
22619 1 0.109856 0.119726 0.267296
25300 4 0.0558297 0.117379 0.259404
25248 5 0.0544788 0.12063 0.291394
22699 5 0.109886 0.113033 0.288396
22624 5 0.114522 0.060075 0.288782
25218 6 0.0807713 0.0352785 0.309211
25294 1 0.00402992 0.113782 0.265536
25184 7 0.0956801 0.0402381 0.311321
25247 5 0.0128628 0.120196 0.285958
25497 9 0.00834383 0.114289 0.306209
25257 7 0.0953751 0.073948 0.307789
25174 3 0.0258206 0.00449169 0.304104
22944 9 0.10994 0.115091 0.30901
22686 7 0.128063 0.0327451 0.254584
22622 3 0.121841 0.0578405 0.30881
22626 3 0.122719 0.123873 0.30761
22623 4 0.12767 0.0264298 0.297033
22681 5 0.139913 0.0218115 0.265082
22620 2 0.131389 0.0521467 0.297161
19999 4 0.221367 0.0483545 0.302038
19993 2 0.232512 0.0615056 0.293361
20068 2 0.234728 0.111103 0.296953
20071 4 0.233931 0.0853572 0.297614
22625 5 0.155166 0.0589091 0.29551
22627 5 0.153032 0.11678 0.292326
22618 1 0.181642 0.0872405 0.291959
20076 5 0.216849 0.0621749 0.283486
22600 1 0.184558 0.0272823 0.291515
22609 5 0.177702 0.0297536 0.272868
22678 5 0.176502 0.0910896 0.271971
19990 1 0.210871 0.0584513 0.265167
22677 5 0.136364 0.08889 0.266071
20129 5 0.239445 0.0881602 0.263555
20053 5 0.23525 0.0238055 0.261816
22602 2 0.162132 0.0325589 0.263253
22673 2 0.15989 0.0825619 0.264179
22676 4 0.16024 0.0580443 0.262633
20119 1 0.209362 0.117369 0.268462
22665 6 0.170149 0.0985743 0.311713
19992 8 0.216912 0.0271215 0.311412
19998 3 0.186402 0.0235139 0.311261
22608 3 0.173942 0.0227583 0.253041
19994 5 0.223554 0.00508624 0.302351
22633 7 0.155496 0.103237 0.309761
22545 2 0.129669 0.00228472 0.293433
20072 5 0.215148 0.117357 0.289705
20070 3 0.231892 0.120056 0.308524
22943 9 0.133853 0.060009 0.313499
22675 3 0.167369 0.0923988 0.252847
22621 2 0.128778 0.12327 0.294825
22919 9 0.163528 0.107994 0.252415
20000 5 0.256446 0.0542389 0.290748
17448 5 0.351005 0.117792 0.287871
17440 8 0.320652 0.0855627 0.309644
17446 3 0.290067 0.0845596 0.308867
17442 5 0.325801 0.0631919 0.301373
17447 4 0.323272 0.107839 0.300544
17443 4 0.331675 0.0242772 0.294399
17439 2 0.332207 0.0488853 0.291722
20048 1 0.286867 0.0866209 0.289479
19989 1 0.280882 0.0225065 0.288288
17445 5 0.354924 0.0567715 0.289024
17444 5 0.313897 0.0543792 0.283639
20057 5 0.279152 0.0881819 0.27042
17495 1 0.307406 0.0540813 0.265884
17506 5 0.337119 0.0231815 0.265406
20054 5 0.277969 0.0251173 0.266892
17438 1 0.312411 0.11909 0.265501
17501 5 0.33651 0.0901521 0.261059
17421 2 0.359211 0.0302652 0.261017
20050 2 0.262548 0.0941205 0.261236
20049 2 0.259671 0.0192948 0.258571
17497 2 0.357883 0.0806657 0.257259
20040 6 0.28336 0.0222397 0.308152
17500 4 0.358444 0.0557027 0.258555
20073 5 0.255908 0.118898 0.291335
20124 4 0.262902 0.119942 0.259733
20056 3 0.272366 0.0810944 0.25135
14358 7 0.465684 0.238814 0.412919
17524 5 0.311965 0.122818 0.283114
17455 7 0.329639 0.0366337 0.314516
17838 9 0.322491 0.00266163 0.309945
20005 7 0.270525 0.0268791 0.312252
17427 4 0.359191 0.0150386 0.251632
17502 5 0.376919 0.0907545 0.263667
17428 5 0.376246 0.0259439 0.269649
17437 1 0.377762 0.0894746 0.286307
14822 3 0.41826 0.0579688 0.303598
14891 4 0.432619 0.0910206 0.292519
14817 2 0.429822 0.0658793 0.293117
14887 2 0.431205 0.115444 0.290209
14823 5 0.453722 0.0565564 0.291911
17418 1 0.385541 0.0237692 0.288879
14893 5 0.453961 0.122668 0.287197
14897 5 0.412466 0.0592666 0.284436
14892 5 0.411849 0.119217 0.282164
14866 1 0.48382 0.0852932 0.287504
14814 1 0.478777 0.0247335 0.289074
14873 5 0.474116 0.0231234 0.268689
14876 5 0.476582 0.0854681 0.267659
14815 1 0.40933 0.0570351 0.264662
14943 1 0.405625 0.118174 0.263327
14954 5 0.435979 0.0891324 0.263592
17412 6 0.394581 0.0207215 0.308942
14869 2 0.458881 0.0919852 0.259514
14872 5 0.433245 0.0184476 0.266257
14867 2 0.456724 0.016272 0.260958
14948 4 0.459778 0.117254 0.256478
14860 6 0.487292 0.0903414 0.308119
17380 7 0.40594 0.00935535 0.309381
14870 5 0.455546 0.034311 0.252633
17379 7 0.404415 0.0329214 0.310574
15286 9 0.425808 0.064212 0.309848
14257 4 0.457084 0.142025 0.477801
14902 7 0.447296 0.0882683 0.314144
25304 4 0.0592233 0.202842 0.253037
25296 2 0.0562774 0.141878 0.26254
25241 1 0.075651 0.152292 0.290938
25249 3 0.0157938 0.183405 0.303573
25360 6 0.0908214 0.212267 0.308395
25320 4 0.0286095 0.216354 0.294591
25317 2 0.0313828 0.240539 0.293251
25295 1 0.0829963 0.21424 0.288591
25250 5 0.0522888 0.182095 0.292061
25244 2 0.0282168 0.19111 0.29297
25325 5 0.014091 0.183208 0.283428
25302 5 0.0762714 0.148916 0.269664
25305 5 0.0783062 0.216615 0.270631
22742 1 0.104274 0.179856 0.267847
25301 5 0.0336824 0.150897 0.266773
25242 1 0.0110017 0.179765 0.264981
25376 5 0.0372879 0.219826 0.265919
25298 2 0.0603839 0.220388 0.261692
25289 6 0.0790925 0.159762 0.311808
25498 9 0.0220347 0.19208 0.309561
25371 4 0.0628591 0.244554 0.258306
22690 1 0.11178 0.245153 0.265156
22695 5 0.110057 0.182097 0.287393
22773 5 0.115252 0.244406 0.284161
25499 9 0.0284113 0.237057 0.310503
25366 1 0.0068354 0.243189 0.265911
25322 5 0.0541605 0.250144 0.289824
25299 5 0.055617 0.157635 0.253097
25330 7 0.100676 0.198847 0.310058
25331 7 0.102216 0.223075 0.307411
22697 3 0.125725 0.244614 0.303452
25255 7 0.0660901 0.15465 0.316018
22693 3 0.126485 0.174824 0.30661
22945 9 0.124376 0.161105 0.309904
22694 4 0.126499 0.148762 0.291668
22691 2 0.129993 0.173011 0.293758
22748 4 0.161414 0.180304 0.258802
22674 2 0.159872 0.154669 0.260891
22754 5 0.135544 0.151841 0.264303
20202 5 0.232218 0.208781 0.261756
22672 1 0.184236 0.146814 0.288476
20142 4 0.22959 0.210944 0.293425
20147 5 0.215389 0.176363 0.285447
22696 5 0.154002 0.181061 0.291711
20074 3 0.223932 0.17848 0.305518
20069 2 0.231412 0.185673 0.294158
22689 1 0.177699 0.211691 0.288826
20392 9 0.221277 0.19063 0.309966
20139 2 0.229241 0.236182 0.292899
20067 1 0.208826 0.17962 0.266222
22680 5 0.178343 0.145628 0.268252
22750 5 0.173995 0.211698 0.269532
22749 5 0.132287 0.205748 0.264254
20125 5 0.238537 0.150469 0.265821
22744 2 0.156107 0.205707 0.261129
22737 6 0.183845 0.209553 0.309101
22736 6 0.191982 0.144742 0.308528
22698 5 0.153942 0.242631 0.289217
20190 1 0.203542 0.241234 0.266535
20393 9 0.220305 0.23673 0.309176
20141 3 0.223095 0.247465 0.30336
22704 7 0.203376 0.133619 0.308492
22747 5 0.155611 0.219508 0.251078
20143 5 0.211784 0.243437 0.284591
22705 7 0.200948 0.158031 0.307581
14828 7 0.496453 0.103506 0.309049
22703 7 0.198786 0.21338 0.311912
17441 2 0.328922 0.124827 0.292234
20075 5 0.254768 0.178291 0.291934
20144 5 0.252569 0.244737 0.290282
17572 4 0.363138 0.182407 0.257697
20126 5 0.278917 0.155005 0.265589
20066 1 0.278999 0.149224 0.288349
17516 2 0.331243 0.175356 0.294851
17518 3 0.331657 0.184374 0.306405
20114 6 0.290836 0.217088 0.307625
17519 4 0.329831 0.149101 0.295885
17521 5 0.35316 0.182606 0.290104
20120 1 0.282161 0.212905 0.287667
17520 5 0.309647 0.182387 0.288981
17595 5 0.313589 0.241532 0.286223
17567 1 0.304912 0.18233 0.266624
20128 5 0.27367 0.212294 0.267246
17577 5 0.334987 0.153598 0.262166
17573 5 0.335198 0.20837 0.264948
17498 2 0.357706 0.157821 0.258125
20121 2 0.259306 0.144534 0.259938
17569 2 0.357685 0.207489 0.259433
20122 2 0.255976 0.217195 0.258591
20196 4 0.25508 0.242639 0.257191
20113 6 0.272752 0.154256 0.309272
17523 5 0.355392 0.244267 0.288979
17515 1 0.308242 0.243051 0.265734
17522 3 0.328787 0.243594 0.304874
17839 9 0.317622 0.192293 0.307559
20079 7 0.299283 0.230859 0.307537
20081 7 0.25721 0.157218 0.307196
17574 5 0.377378 0.216034 0.265404
17530 7 0.358516 0.204375 0.307597
17505 5 0.376083 0.149556 0.26577
15305 9 0.377765 0.167053 0.308985
17561 6 0.374185 0.208049 0.30638
17514 1 0.378115 0.211801 0.286021
14890 5 0.422317 0.129493 0.299614
15020 4 0.463984 0.243303 0.257277
14945 2 0.458129 0.142348 0.258196
14886 1 0.412517 0.18169 0.26106
14894 3 0.387992 0.156124 0.304779
14972 5 0.414543 0.183313 0.279912
14896 5 0.45469 0.18855 0.284794
14888 8 0.418077 0.152673 0.307664
12342 3 0.483387 0.208124 0.304548
14895 4 0.427215 0.173655 0.29847
14964 2 0.430838 0.238773 0.292438
14967 4 0.426981 0.213748 0.291506
14889 2 0.430226 0.189399 0.288985
17496 1 0.38372 0.15158 0.285432
14944 1 0.483004 0.213972 0.284583
14885 1 0.479166 0.14995 0.285824
14953 5 0.478785 0.208258 0.263312
14936 6 0.481175 0.150284 0.306214
14950 5 0.47586 0.148566 0.265955
15025 5 0.436494 0.21262 0.257493
14949 5 0.435779 0.15122 0.2619
14946 2 0.461226 0.218319 0.255971
15015 1 0.407018 0.245727 0.263814
14969 5 0.452316 0.246078 0.287473
14968 5 0.41266 0.247528 0.284402
14966 3 0.430128 0.246107 0.304428
14901 7 0.494724 0.143017 0.30885
14900 7 0.470775 0.150415 0.312381
17529 7 0.380455 0.207168 0.31344
12753 9 0.470885 0.206049 0.30987
25183 7 0.0757437 0.0290857 0.315904
25256 7 0.0724097 0.081452 0.313891
24544 6 0.0705282 0.0219939 0.333073
24654 7 0.103617 0.0962145 0.331884
24655 7 0.0853287 0.0807629 0.328157
24614 6 0.0968465 0.0828788 0.333619
24820 9 0.0389872 0.0645594 0.331178
24550 1 0.0882948 0.086188 0.354602
24571 2 0.0340214 0.0606807 0.347724
24576 3 0.0338917 0.0518391 0.335698
24577 5 0.056836 0.0538143 0.35188
24639 2 0.0342357 0.11013 0.349222
24643 4 0.0308923 0.0857769 0.345629
24644 5 0.0179075 0.114944 0.358364
24645 5 0.0585557 0.115885 0.352323
24649 5 0.0170972 0.0536891 0.356239
24568 1 0.0820947 0.0259452 0.353355
22022 5 0.116216 0.0593956 0.353984
22097 5 0.119375 0.119448 0.355572
24582 7 0.0633482 0.00730365 0.333639
24581 7 0.0578413 0.0322396 0.331742
25186 7 0.0420011 0.0967403 0.31783
25217 6 0.0483961 0.08259 0.319598
25185 7 0.0412978 0.0720489 0.314333
22267 9 0.127112 0.0585948 0.334185
22017 1 0.11656 0.117617 0.375122
24819 9 0.0172786 -0.000883795 0.337191
22634 7 0.17788 0.111843 0.310839
20391 9 0.235391 0.108983 0.31373
22266 9 0.131886 0.0113021 0.334934
22024 3 0.127273 0.117159 0.335597
22020 3 0.134679 0.0462868 0.336557
20409 9 0.175804 0.0290757 0.317488
22032 7 0.205152 0.0396317 0.333798
22021 4 0.132943 0.0230002 0.352345
20065 6 0.240354 0.0276668 0.322611
22631 7 0.202553 0.10088 0.333008
22632 7 0.184675 0.0882591 0.326514
19714 9 0.230552 0.0757637 0.335826
22666 6 0.190854 0.0893117 0.333559
19468 3 0.232553 0.111057 0.336214
19398 3 0.232838 0.0605553 0.338111
19466 2 0.237167 0.110163 0.348762
19469 4 0.234664 0.0860096 0.353374
19393 2 0.235811 0.0602249 0.350592
19474 5 0.217185 0.0509628 0.356808