ITEM: TIMESTEP
315000
ITEM: NUMBER OF ATOMS
25520
ITEM: BOX BOUNDS pp pp pp
-3.8782072149596430e-01 6.0086364311496439e+01
-1.9434505085080631e+00 5.9113735782509451e+01
-1.2642079521711512e+01 1.1191781192771761e+02
ITEM: ATOMS id type xs ys zs
25182 6 0.101191 0.0194794 0.149465
25252 6 0.11439 0.0823218 0.151028
25214 3 0.0417347 0.0448933 0.16058
25287 5 0.0354593 0.0590644 0.178138
25283 5 0.075607 0.114883 0.170122
25282 5 0.0326346 0.11399 0.176543
25281 4 0.0478079 0.0852947 0.165031
25277 2 0.0497892 0.110657 0.167884
25215 5 0.0758047 0.0541826 0.171063
25209 2 0.0523132 0.060968 0.169117
25188 1 0.105146 0.0873113 0.170562
25458 9 0.0525164 0.0338819 0.158473
25206 1 0.100465 0.0242606 0.170764
2433 1 0.00914489 0.022494 0.172542
25219 7 0.103401 0.0285264 0.143106
25472 9 0.063888 0.0685179 0.248245
25293 7 0.126447 0.0935954 0.149363
25220 7 0.114255 0.00927107 0.14978
25292 7 0.120758 0.0691485 0.146829
22735 5 0.136632 0.119241 0.172067
22660 5 0.136511 0.0568094 0.171942
22905 9 0.163867 0.0577883 0.148849
22662 3 0.149029 0.113498 0.152964
22658 3 0.150591 0.0521609 0.152546
22656 2 0.154809 0.0473592 0.164577
20112 5 0.237396 0.0549867 0.172156
22663 5 0.177911 0.123822 0.166678
22654 1 0.2022 0.0870221 0.16894
22661 5 0.178149 0.0545082 0.167142
22669 7 0.228292 0.028644 0.150612
22659 4 0.150957 0.0227384 0.166607
22563 1 0.206779 0.0228007 0.170016
22629 6 0.215574 0.0179818 0.150253
22630 6 0.197973 0.0966322 0.148877
22667 7 0.183983 0.10558 0.150431
22668 7 0.207369 0.109136 0.147462
22670 7 0.224818 0.00398867 0.150785
20108 5 0.237283 0.121094 0.16915
20106 3 0.253105 0.116322 0.150996
20036 3 0.245991 0.0531855 0.153053
20352 9 0.248578 0.0643248 0.147793
22904 9 0.153268 0.0041499 0.149554
20042 7 0.292439 0.0201336 0.146324
20107 4 0.256109 0.0867694 0.165373
20104 2 0.256847 0.111807 0.162957
20031 2 0.255235 0.0620871 0.164129
20118 7 0.325766 0.0986386 0.149173
20117 7 0.32638 0.0751215 0.151905
20077 6 0.315734 0.0860728 0.151093
17480 3 0.345896 0.0499608 0.153413
17799 9 0.333772 0.0405675 0.150561
17478 2 0.353069 0.0443297 0.164961
20109 5 0.278107 0.121457 0.166474
17482 5 0.33579 0.0561298 0.171717
20037 5 0.278156 0.050722 0.166332
20011 1 0.305352 0.0862272 0.171042
20028 1 0.301311 0.0224193 0.169373
17481 4 0.350684 0.0199173 0.16761
20003 6 0.306633 0.0160419 0.14925
17560 5 0.334362 0.117043 0.173527
17414 7 0.362204 0.0352266 0.140886
17484 3 0.34973 0.114048 0.155556
20353 9 0.2623 0.10774 0.145848
20041 7 0.308786 0.000620472 0.146882
17479 2 0.353463 0.124627 0.166795
17413 7 0.36489 0.0103939 0.141736
17485 5 0.375454 0.115444 0.170874
17378 6 0.371208 0.0225822 0.13848
17483 5 0.37498 0.053904 0.16901
17490 7 0.406679 0.100605 0.145701
17489 7 0.42599 0.0990388 0.154157
17451 6 0.410865 0.093145 0.152384
14856 3 0.443902 0.0442209 0.158846
15246 9 0.455369 0.0424051 0.15411
14929 4 0.4467 0.0837103 0.166017
14926 2 0.452105 0.107837 0.166907
14851 2 0.450075 0.0585415 0.168914
14931 5 0.475979 0.109222 0.171136
14857 5 0.474509 0.0554479 0.17219
17476 1 0.397294 0.0823996 0.171671
14934 5 0.434122 0.0560108 0.178105
14930 5 0.433196 0.117005 0.173965
17384 1 0.405867 0.0208814 0.17433
17450 6 0.409047 0.0174778 0.153147
17492 7 0.418326 0.0291874 0.151002
17491 7 0.397966 0.0184666 0.14783
14928 3 0.450768 0.118743 0.155616
15247 9 0.465654 0.123047 0.152916
14848 1 0.500074 0.0226208 0.174696
2065 6 0.00446532 0.207417 0.154872
25290 7 0.118463 0.149483 0.150603
25280 5 0.0435487 0.127154 0.159727
2033 7 0.0526886 0.145061 0.134452
25253 6 0.101952 0.148837 0.151186
2032 7 0.0494386 0.172232 0.136121
1995 6 0.0416755 0.156685 0.137814
25275 1 0.101976 0.150351 0.171375
25278 8 0.0352411 0.152448 0.153079
22957 9 0.0948124 0.206481 0.150256
22732 3 0.105813 0.213341 0.155096
25285 4 0.0444769 0.173833 0.162032
25359 5 0.0378355 0.17938 0.180946
25356 5 0.074366 0.245404 0.172936
25354 4 0.0511361 0.211298 0.170175
25351 2 0.0525411 0.236048 0.169583
25286 5 0.077223 0.179969 0.172288
25279 2 0.0527449 0.186237 0.171689
25259 1 0.10539 0.21392 0.173092
25355 5 0.0340689 0.24386 0.176942
25433 7 0.0526217 0.194885 0.152019
25394 6 0.0562603 0.203874 0.145766
25432 7 0.0530366 0.218594 0.147938
1933 1 0.00580352 0.147027 0.175582
25291 7 0.0973146 0.135231 0.147894
2104 7 0.00900999 0.191497 0.153451
25284 3 0.00479397 0.156244 0.15658
2103 7 0.0127804 0.215703 0.149769
25353 3 0.0484697 0.244889 0.157772
1963 7 0.127661 0.223556 0.131124
2017 1 -0.000189881 0.211109 0.175646
25269 6 0.000235159 0.119388 0.24337
25382 7 0.00243595 0.22634 0.242031
22906 9 0.1573 0.119229 0.147175
22657 2 0.153702 0.12566 0.163914
1962 7 0.147677 0.242174 0.135315
22741 7 0.231047 0.136986 0.149957
22740 7 0.226491 0.160478 0.146631
1927 6 0.14202 0.225239 0.136286
22726 8 0.136504 0.217257 0.151111
22730 5 0.137746 0.179687 0.175026
22700 6 0.218628 0.147005 0.149991
22636 1 0.207799 0.149073 0.169612
22729 4 0.151143 0.150527 0.161893
22733 4 0.143852 0.238527 0.15999
20188 7 0.2123 0.212515 0.148442
20189 7 0.203198 0.233226 0.147058
20148 6 0.199275 0.220364 0.150982
22728 5 0.14568 0.193009 0.157207
22725 2 0.153192 0.175419 0.165536
20178 5 0.234039 0.239975 0.176156
20183 5 0.237343 0.179267 0.172333
22723 1 0.199581 0.213 0.171537
22731 5 0.17707 0.181242 0.168884
22734 5 0.173535 0.246433 0.172645
20110 3 0.244694 0.18364 0.151836
22807 5 0.133977 0.245582 0.178841
20354 9 0.252032 0.193331 0.146774
20177 4 0.251296 0.212981 0.163863
20105 2 0.253127 0.188102 0.163771
17800 9 0.356612 0.122411 0.150077
20173 2 0.250922 0.237041 0.167122
17555 4 0.354558 0.150083 0.165631
20102 1 0.300937 0.151037 0.169116
17554 3 0.353218 0.178587 0.151927
17801 9 0.354733 0.194403 0.150249
17558 3 0.345778 0.23778 0.150805
17552 2 0.354116 0.174808 0.16441
17556 5 0.332703 0.18359 0.169572
20111 5 0.27573 0.179897 0.166746
20084 1 0.30578 0.212872 0.170373
20179 5 0.274608 0.244553 0.169629
17631 5 0.334086 0.243185 0.169977
17802 9 0.34471 0.24779 0.144711
17557 5 0.376254 0.182998 0.168385
17564 7 0.401005 0.229559 0.146849
17566 7 0.412809 0.167613 0.149462
17563 7 0.38042 0.225652 0.15249
14938 7 0.440297 0.198187 0.14378
14937 7 0.427951 0.213016 0.1362
17565 7 0.389784 0.165667 0.151938
17525 6 0.402519 0.156372 0.151892
17459 1 0.40605 0.148115 0.172354
17526 6 0.392927 0.217241 0.149987
14899 6 0.442133 0.208025 0.137568
15248 9 0.447633 0.158799 0.152877
15002 3 0.449739 0.239904 0.150138
14932 3 0.451301 0.173458 0.152686
15000 2 0.452229 0.231984 0.162047
15003 4 0.449945 0.20735 0.162779
14927 2 0.452913 0.182174 0.164664
15005 5 0.475969 0.23851 0.165729
14933 5 0.476248 0.175362 0.16844
15004 5 0.432945 0.242611 0.168454
17550 1 0.400239 0.210809 0.169979
15008 5 0.433383 0.175158 0.171402
15249 9 0.452379 0.226658 0.145446
17559 5 0.375206 0.245014 0.164615
17507 6 0.325995 0.0045787 0.213394
14940 7 0.495954 0.148893 0.146384
25471 9 0.0615905 0.0143493 0.243514
25198 5 0.100173 0.0823756 0.191426
25195 5 0.097344 0.0204321 0.190232
25268 5 0.0603398 0.0838047 0.196114
25258 1 0.0306664 0.116957 0.196062
25207 1 0.0356549 0.0542 0.196188
25191 2 0.0833757 0.0913083 0.199136
25263 4 0.085182 0.117128 0.198728
25197 4 0.0840685 0.0828815 0.211019
25192 5 0.079715 0.0336154 0.207263
25196 3 0.0422359 0.0543834 0.215667
25190 8 0.0733489 0.0557324 0.216258
25510 9 0.0339731 0.0685463 0.217968
25517 7 0.0785878 0.0432338 0.235654
25240 6 0.0892137 0.0487575 0.229244
22685 7 0.0917718 0.099031 0.221835
25506 7 0.103545 0.0376889 0.228203
22649 6 0.0938696 0.113281 0.226098
25194 5 0.055714 0.0157124 0.195265
25189 2 0.0793595 0.0160324 0.199104
25201 6 0.0242115 0.051024 0.242761
25204 7 0.0407715 0.0170122 0.216761
25205 7 0.0158335 0.0119023 0.217579
25234 6 0.0296041 0.00562678 0.215149
25309 7 0.0548049 0.106812 0.241482
22684 7 0.0791407 0.115885 0.229842
25270 6 0.0515637 0.115064 0.23507
25236 7 0.0295481 0.0516057 0.235332
22651 7 0.112345 0.0336655 0.207708
25237 7 0.032875 0.0382279 0.245666
25227 3 0.0628102 0.0278765 0.248345
25231 3 0.0695106 0.08267 0.249442
25271 7 0.0285289 0.121501 0.224077
20062 7 0.115739 0.0892453 0.231774
22760 7 0.100736 0.125261 0.241537
22958 9 0.123444 0.11951 0.21528
17537 4 0.380953 0.180327 0.198406
17539 5 0.399467 0.210744 0.189709
20055 6 0.209538 0.00285515 0.242496
22650 7 0.131291 0.0408256 0.216158
22686 7 0.151108 0.0253987 0.227926
22635 1 0.126935 0.0540153 0.190999
22643 5 0.197613 0.0853681 0.187851
22572 5 0.197859 0.0224122 0.189308
20083 1 0.22633 0.116818 0.190137
22683 6 0.124911 0.0431857 0.208384
20134 7 0.222656 0.0471395 0.239914
22687 7 0.14894 0.0491659 0.229482
20061 7 0.123379 0.0656377 0.231971
22648 6 0.139394 0.0373864 0.229233
20023 6 0.127006 0.0801673 0.234481
22919 9 0.146721 0.0909848 0.245241
22931 9 0.174936 0.0122406 0.212117
22655 1 0.131819 0.117728 0.191983
20029 1 0.232027 0.0527295 0.191621
22642 5 0.156321 0.0801741 0.191708
20063 7 0.178618 0.070118 0.218234
22637 2 0.179963 0.0787863 0.195612
22641 4 0.183636 0.0548388 0.198862
22565 2 0.180596 0.0286865 0.197617
22640 5 0.175876 0.0944766 0.205192
20060 6 0.227467 0.0573687 0.212685
20022 6 0.184098 0.0574698 0.222024
20064 7 0.182874 0.0458925 0.216465
22647 5 0.157124 0.0230478 0.195029
20096 6 0.211722 0.0552361 0.243547
22571 3 0.187625 0.0175485 0.208293
22638 8 0.166399 0.116235 0.213915
22918 9 0.159688 0.0222227 0.244362
22965 7 0.175674 0.0933296 0.230803
22688 6 0.182049 0.107364 0.226761
17509 7 0.24036 0.00906481 0.225838
20024 7 0.21249 0.0563608 0.217281
20135 7 0.199641 0.0563907 0.238046
20098 7 0.233484 0.10975 0.216544
20025 7 0.233388 0.0709705 0.214845
20131 6 0.22286 0.109751 0.210153
17471 6 0.239727 0.0226317 0.229343
20099 7 0.210685 0.100549 0.213254
20130 6 0.252547 0.094616 0.225625
17510 7 0.239293 0.032767 0.223561
22675 3 0.161088 0.0933334 0.248119
22644 3 0.136665 0.118146 0.210349
20009 7 0.216527 0.00785319 0.235645
20008 7 0.196201 0.0113792 0.24243
1941 5 0.00023478 0.145593 0.196108
14992 6 0.411214 0.244855 0.245399
17474 7 0.311663 0.0106853 0.215012
20051 3 0.26989 0.0229624 0.246065
20101 7 0.257879 0.0922539 0.232523
20365 9 0.255676 0.0252141 0.24206
20020 5 0.297632 0.0867397 0.189969
20017 5 0.296399 0.0248429 0.190063
20016 5 0.256399 0.0215335 0.194517
17477 1 0.332074 0.117165 0.19431
17458 1 0.327387 0.0530536 0.191686
20095 5 0.254769 0.0857303 0.194309
17464 5 0.356113 0.0857267 0.195533
20013 2 0.278345 0.0907118 0.198246
20379 9 0.292934 0.0705049 0.209344
20089 4 0.282031 0.116832 0.199025
20019 3 0.280771 0.0806866 0.209718
20378 9 0.269826 0.031254 0.213605
17466 6 0.321893 0.0583522 0.212245
17493 7 0.310741 0.0502239 0.216254
17494 7 0.329412 0.0665561 0.217932
17473 7 0.33165 0.113447 0.219496
14960 7 0.358534 0.0895678 0.222507
17548 7 0.277225 0.109363 0.222439
14918 6 0.343523 0.0899636 0.225971
14959 7 0.348216 0.0924301 0.233075
17469 5 0.356418 0.02251 0.196887
17456 7 0.293553 0.0424182 0.242428
17457 7 0.286162 0.0647468 0.244865
20014 3 0.283815 0.0290255 0.209816
20012 2 0.279583 0.0169334 0.198608
17503 6 0.300267 0.0562578 0.24415
17499 3 0.369097 0.0870023 0.245009
20366 9 0.281621 0.106113 0.245022
20100 7 0.260897 0.0859352 0.220462
17508 6 0.323181 0.119946 0.213597
17860 7 0.375902 0.00651824 0.22755
20056 3 0.269251 0.0962716 0.246918
17472 7 0.307046 0.116966 0.215033
14878 6 0.437567 0.000525343 0.237824
14875 4 0.461943 0.0800082 0.248383
17813 9 0.383722 0.0947395 0.245228
12408 7 0.489059 0.135309 0.23567
14838 5 0.494586 0.0246879 0.194166
14847 7 0.443477 0.00896655 0.243706
17463 4 0.380228 0.0547742 0.200296
17465 5 0.397063 0.0898142 0.192669
17460 2 0.378426 0.0801263 0.199887
17386 2 0.379429 0.0297563 0.200767
15272 9 0.484951 0.0121509 0.218749
17462 3 0.380835 0.0890561 0.211571
17391 3 0.384928 0.0230458 0.212203
14840 5 0.498545 0.0839783 0.194656
14906 1 0.426098 0.117717 0.194485
17392 5 0.396995 0.0206572 0.192926
17826 9 0.394878 0.095594 0.212544
14849 1 0.431502 0.0549959 0.197508
14917 5 0.457289 0.0848328 0.198654
14837 5 0.454817 0.0253843 0.199341
14911 4 0.480683 0.117822 0.20076
14834 2 0.48059 0.0932238 0.202235
14839 3 0.486166 0.0863716 0.213699
14955 6 0.413801 0.0568062 0.21555
15273 9 0.489387 0.0987156 0.218443
14922 7 0.417022 0.0610892 0.222763
14923 7 0.398949 0.0507517 0.215101
15308 7 0.465642 0.0671536 0.220845
14884 6 0.456267 0.0557855 0.225259
15297 7 0.463998 0.0406995 0.222602
15303 9 0.413705 0.0778403 0.244787
14868 8 0.451178 0.0577176 0.2406
14835 3 0.486001 0.0242987 0.21326
14874 3 0.421365 0.0629755 0.244443
14833 2 0.47761 0.0167063 0.202189
14951 6 0.405921 0.119146 0.244976
12291 6 0.444098 0.116409 0.234072
14904 7 0.421206 0.121446 0.241495
12329 7 0.450678 0.102786 0.237968
17825 9 0.394351 0.0101216 0.212461
14942 7 0.424536 0.115067 0.22174
14914 6 0.418084 0.116813 0.214172
14870 5 0.457559 0.0345625 0.248819
25308 6 0.0273914 0.126686 0.216448
25304 4 0.0599528 0.19933 0.248761
22717 6 0.11023 0.128708 0.247702
25343 6 0.0158406 0.234441 0.242443
25345 7 0.0423836 0.245654 0.222846
25272 7 0.0125611 0.132243 0.21617
25310 7 0.0549927 0.129895 0.236209
25484 9 0.0924733 0.130132 0.216412
25267 5 0.0994405 0.210359 0.193361
25265 5 0.0991487 0.152599 0.192962
25348 7 0.0211525 0.176099 0.224122
25347 7 0.0094081 0.189334 0.215975
25512 9 0.0107169 0.162614 0.240726
25303 3 0.0200261 0.17764 0.242555
25260 2 0.0831514 0.141721 0.201342
25264 5 0.0597773 0.149587 0.19993
25332 1 0.0265847 0.242904 0.198004
25276 1 0.0347944 0.179965 0.198269
25342 5 0.058317 0.210304 0.198305
25337 4 0.0852232 0.243521 0.201917
25261 2 0.081669 0.218553 0.201467
25266 3 0.0863592 0.206671 0.212522
25262 3 0.0933717 0.145123 0.212455
25485 9 0.0979082 0.195699 0.210999
22720 7 0.116941 0.164766 0.215881
25377 6 0.0236975 0.182197 0.216929
25507 7 0.0609297 0.189113 0.221372
25518 7 0.0716059 0.164807 0.223249
25314 6 0.0668496 0.179578 0.227567
25297 8 0.0511358 0.175439 0.24123
22757 7 0.0965367 0.183334 0.239654
22718 6 0.107762 0.183418 0.24526
22830 7 0.072543 0.228288 0.221792
22791 6 0.0692987 0.240051 0.227268
22829 7 0.0663515 0.233013 0.233894
25381 7 0.0253439 0.223519 0.245848
22751 3 0.124485 0.244354 0.242924
25378 6 0.0274063 0.244402 0.219158
22796 7 0.108632 0.24382 0.214836
25346 7 0.0167414 0.24378 0.225273
22960 9 0.11309 0.232328 0.240055
22758 7 0.122942 0.180096 0.241726
22795 7 0.124945 0.246489 0.224561
22920 9 0.159051 0.128733 0.249451
20133 7 0.208878 0.121406 0.238236
20208 7 0.22617 0.241061 0.239374
22954 7 0.182467 0.119659 0.233041
22756 6 0.128124 0.17586 0.213862
20097 6 0.215147 0.121644 0.245332
22825 6 0.124189 0.240321 0.217468
22759 7 0.122687 0.132693 0.243078
22706 1 0.129296 0.179519 0.192474
20165 6 0.215105 0.236169 0.244811
22646 5 0.202899 0.147441 0.190253
22713 5 0.195537 0.211171 0.192394
20103 1 0.232193 0.180302 0.192408
22719 7 0.134629 0.179617 0.220913
22716 5 0.160029 0.143985 0.190794
20154 1 0.226162 0.239629 0.194439
22724 1 0.134364 0.243042 0.197354
22722 7 0.154171 0.191489 0.241675
22645 4 0.178486 0.139087 0.206329
22712 5 0.156875 0.211265 0.199077
22639 2 0.181863 0.152414 0.195883
22708 2 0.180373 0.201567 0.200937
22711 4 0.179777 0.176266 0.199455
22710 3 0.188565 0.205112 0.212287
22932 9 0.188045 0.191243 0.216551
20167 7 0.205462 0.231048 0.216131
20204 6 0.219992 0.238441 0.215004
20092 3 0.237616 0.179593 0.211766
22721 7 0.154667 0.166895 0.239245
20406 9 0.226043 0.177574 0.218041
22966 7 0.167513 0.225012 0.223884
22745 8 0.155053 0.242745 0.241504
20166 6 0.190439 0.168533 0.223194
20206 7 0.179269 0.171037 0.228886
22755 6 0.150072 0.181257 0.235971
20205 7 0.182194 0.160399 0.217189
22762 6 0.174633 0.23831 0.229297
20207 7 0.20163 0.23457 0.240404
20169 7 0.256288 0.238881 0.237858
22679 3 0.164016 0.143316 0.248174
20170 7 0.247698 0.232029 0.227372
20132 7 0.22835 0.113117 0.243323
1939 5 0.00400857 0.091085 0.197523
20367 9 0.269832 0.167845 0.24857
17544 6 0.30989 0.127832 0.243063
17583 7 0.306953 0.125288 0.235358
17582 7 0.298263 0.138254 0.245302
17617 7 0.288133 0.245622 0.227348
17578 6 0.285428 0.123546 0.223837
20127 3 0.267911 0.204502 0.248653
17504 3 0.372966 0.147014 0.247418
20203 6 0.260574 0.230904 0.231778
17571 3 0.370343 0.216704 0.247761
20091 5 0.29737 0.147966 0.189554
20094 5 0.29913 0.209123 0.191607
17549 7 0.281944 0.132922 0.217607
17531 1 0.326757 0.178319 0.191572
20090 5 0.255 0.143017 0.191758
17551 1 0.332968 0.243448 0.1905
17538 5 0.357354 0.209781 0.191457
17545 6 0.328539 0.240549 0.245171
20164 5 0.258695 0.20975 0.192758
20368 9 0.268702 0.215121 0.243147
17543 5 0.356509 0.147175 0.196148
20085 2 0.27839 0.140896 0.196662
20086 8 0.267844 0.177897 0.214858
20087 2 0.280042 0.217074 0.19841
20159 4 0.28136 0.242098 0.201107
20088 5 0.275288 0.155585 0.206532
20093 4 0.276436 0.200225 0.20735
17547 7 0.316882 0.16191 0.216996
17540 3 0.33785 0.246552 0.210246
17579 6 0.325097 0.172677 0.21242
17546 7 0.338441 0.164017 0.212533
20136 6 0.279757 0.172001 0.229342
20413 7 0.278254 0.182899 0.235396
20402 7 0.275678 0.156105 0.232356
17534 8 0.367522 0.243094 0.213776
17827 9 0.37043 0.140951 0.214669
17814 9 0.370374 0.158449 0.241731
17580 7 0.338115 0.228604 0.246677
17850 7 0.376897 0.228485 0.232964
17475 7 0.335449 0.00855193 0.219551
14925 1 0.432249 0.180959 0.193556
14909 2 0.482337 0.215009 0.198213
12366 6 0.489501 0.124213 0.229615
17533 2 0.37943 0.20489 0.196587
17815 9 0.374183 0.205682 0.242977
17584 6 0.382379 0.242207 0.227804
15026 6 0.376981 0.181957 0.229753
14913 5 0.495356 0.149232 0.191657
14915 3 0.492642 0.205165 0.20876
15030 7 0.395424 0.244684 0.244264
14947 3 0.469158 0.151441 0.246802
14997 7 0.392312 0.180468 0.230949
14952 3 0.468737 0.212137 0.249244
14910 3 0.486288 0.151603 0.211658
17468 5 0.398108 0.146174 0.19292
14956 6 0.43312 0.18208 0.214302
14916 5 0.497439 0.208002 0.189038
14905 7 0.398471 0.133966 0.243209
14991 5 0.458907 0.210534 0.195051
14996 7 0.375313 0.17474 0.22251
14908 2 0.478808 0.142765 0.200305
17536 5 0.376211 0.220261 0.206034
14920 7 0.441074 0.172745 0.219284
15275 9 0.480593 0.20123 0.213659
17467 3 0.3814 0.151308 0.211629
14941 7 0.407478 0.128553 0.214939
15262 9 0.455921 0.20256 0.24739
14958 7 0.440419 0.170662 0.244288
14957 7 0.426293 0.186181 0.238407
14921 7 0.425461 0.190626 0.219462
15274 9 0.49648 0.163689 0.211229
15261 9 0.479393 0.163381 0.247548
12328 7 0.45477 0.127512 0.235786
14985 4 0.485995 0.239314 0.199648
12407 7 0.481637 0.131829 0.224241
14919 6 0.426269 0.177902 0.245405
14912 5 0.455961 0.149184 0.196053
12353 7 0.495076 0.195476 0.246915
14979 1 0.42828 0.24074 0.190274
17461 2 0.379092 0.155453 0.199422
17854 9 0.325305 0.252065 0.215363
15031 7 0.414796 0.247993 0.238194
22613 7 0.0940012 -0.00235318 0.241997
25203 7 0.0618127 0.00396899 0.226238
22652 7 0.143822 0.000692427 0.218887
25299 5 0.0604963 0.154682 0.249955
25178 3 0.0287866 0.0621605 0.304118
25245 3 0.0343994 0.114639 0.304443
25251 5 0.016475 0.0536152 0.286143
25246 4 0.0368274 0.088561 0.289647
25243 2 0.0375783 0.114007 0.291828
25224 1 0.0884427 0.0878953 0.289745
25179 5 0.0594325 0.0550297 0.291012
25173 2 0.0359414 0.0637422 0.292422
25170 1 0.0843271 0.0245885 0.289329
25232 5 0.0804701 0.0860174 0.268864
25230 5 0.0824378 0.0274776 0.267235
22671 1 0.108994 0.0558696 0.2674
25171 1 0.0147631 0.0557424 0.263189
25229 5 0.0418082 0.0277368 0.264201
25294 1 0.00923094 0.118378 0.263755
25306 5 0.039232 0.0854938 0.261832
25226 2 0.0631875 0.0919217 0.2605
25225 2 0.0639538 0.0193232 0.260269
25496 9 0.0216789 0.0476053 0.305585
25288 6 0.10063 0.0874075 0.310183
25497 9 0.0371487 0.0998606 0.306701
22619 1 0.116815 0.116607 0.266466
25300 4 0.0645064 0.11683 0.259534
25248 5 0.0609467 0.123648 0.289534
22699 5 0.119191 0.116039 0.28712
22624 5 0.117379 0.0572332 0.288329
25183 7 0.11214 0.0284758 0.308103
25218 6 0.0959713 0.0266384 0.30977
25257 7 0.109038 0.101141 0.310684
1930 7 0.00286146 0.0198414 0.31234
25247 5 0.0169125 0.123247 0.286082
25256 7 0.111725 0.0743194 0.311189
1928 7 0.00243744 0.0792487 0.306933
19407 7 0.202914 -0.00194849 0.400769
22626 3 0.13235 0.119604 0.305352
22622 3 0.13595 0.0589924 0.306631
22623 4 0.136885 0.0256306 0.296201
22681 5 0.138475 0.0281143 0.264705
22620 2 0.137807 0.0505651 0.294799
19999 4 0.232438 0.0495138 0.299667
19993 2 0.237005 0.0661655 0.291337
20068 2 0.236903 0.115411 0.294518
20071 4 0.234256 0.0900954 0.296013
22625 5 0.159576 0.0584663 0.29029
22627 5 0.161357 0.117191 0.289788
22618 1 0.184561 0.0877903 0.287583
20076 5 0.218552 0.063328 0.283248
22600 1 0.19174 0.0276829 0.287007
22609 5 0.18094 0.0270055 0.269086
22678 5 0.182527 0.0902966 0.265437
19990 1 0.216357 0.057794 0.263196
22677 5 0.140903 0.0892529 0.263474
20129 5 0.240587 0.0878389 0.26132
20053 5 0.240898 0.0239962 0.260903
22602 2 0.162148 0.0312424 0.260503
22673 2 0.16278 0.0812079 0.259198
22676 4 0.164622 0.0563903 0.258165
19998 3 0.195421 0.0255466 0.306736
19992 8 0.225603 0.0264449 0.308119
20119 1 0.210929 0.11953 0.266151
20072 5 0.218075 0.121654 0.286771
19994 5 0.232433 0.00401018 0.299548
22943 9 0.148992 0.0552955 0.310853
20391 9 0.230437 0.118773 0.311081
20409 9 0.185831 0.0304097 0.313599
20000 5 0.260325 0.0628296 0.28746
17448 5 0.35974 0.119295 0.289064
17440 8 0.323305 0.0879875 0.308195
17446 3 0.292643 0.0902028 0.306332
17442 5 0.330432 0.0661564 0.299935
17447 4 0.327443 0.109086 0.298295
17443 4 0.333006 0.0273969 0.293458
17439 2 0.335678 0.0513371 0.290134
20048 1 0.291324 0.0913622 0.286865
19989 1 0.284462 0.0293732 0.285632
17445 5 0.359983 0.0586372 0.288544
17444 5 0.319944 0.0582276 0.281255
20057 5 0.282083 0.0874106 0.265611
17495 1 0.309476 0.0582736 0.263841
17506 5 0.339308 0.0224412 0.266068
20054 5 0.282525 0.0263807 0.264735
17438 1 0.314848 0.122053 0.263741
17501 5 0.338893 0.0893597 0.260702
17421 2 0.360952 0.0313069 0.261085
20050 2 0.263192 0.0968522 0.25884
20049 2 0.263921 0.0163909 0.258111
17497 2 0.362115 0.0822561 0.256749
20040 6 0.287886 0.0377489 0.306012
17500 4 0.360994 0.0572936 0.258264
20073 5 0.26031 0.12221 0.290694
20124 4 0.263535 0.120994 0.26213
17524 5 0.31984 0.125033 0.281089
17369 2 0.334703 0.00141655 0.293455
20005 7 0.300231 0.0445639 0.310046
17857 9 0.280883 0.0811028 0.310368
20081 7 0.289033 0.130052 0.311296
17838 9 0.333866 0.00661648 0.309892
17427 4 0.360678 0.0157899 0.251423
17502 5 0.380083 0.0895022 0.264663
17428 5 0.379745 0.0234282 0.26791
17437 1 0.382924 0.0866339 0.286111
14822 3 0.425702 0.0546075 0.302172
14891 4 0.43714 0.087304 0.293052
14817 2 0.43548 0.0624944 0.291349
14887 2 0.434958 0.112395 0.291176
14823 5 0.457265 0.0525169 0.288315
17418 1 0.389191 0.0256274 0.28816
14893 5 0.457598 0.119738 0.287757
14897 5 0.419232 0.0581576 0.28234
14892 5 0.416435 0.116417 0.283504
14866 1 0.486466 0.0868439 0.286692
14814 1 0.482777 0.0251138 0.286484
14873 5 0.476659 0.0263986 0.26623
14876 5 0.478773 0.0836821 0.266882
14815 1 0.413063 0.0557691 0.263161
14943 1 0.408388 0.119214 0.265877
14954 5 0.437948 0.0939361 0.263145
17412 6 0.393154 0.0247566 0.308173
14869 2 0.46215 0.0930306 0.259004
14872 5 0.436424 0.0236219 0.262998
14867 2 0.459068 0.0198021 0.258396
14948 4 0.466694 0.118371 0.25765
14860 6 0.489552 0.090151 0.306613
17379 7 0.405972 0.0354296 0.306818
15286 9 0.426255 0.0665854 0.307681
17380 7 0.402201 0.00962857 0.308225
20123 3 0.272555 0.152547 0.250319
14903 7 0.434254 0.100266 0.311056
24564 7 0.0742847 0.00188177 0.414126
25255 7 0.106372 0.162882 0.309457
25296 2 0.062588 0.142995 0.260522
25241 1 0.0860459 0.152918 0.288716
25249 3 0.0266977 0.179138 0.301177
25360 6 0.0936532 0.215263 0.306419
25320 4 0.032958 0.214766 0.291272
25317 2 0.0371957 0.239658 0.290128
25295 1 0.0910348 0.213872 0.285556
25250 5 0.0595002 0.183165 0.289087
25244 2 0.0349543 0.189626 0.290217
25325 5 0.0182024 0.182457 0.281834
25302 5 0.0796525 0.153054 0.268251
25305 5 0.0809911 0.209496 0.265709
22742 1 0.110962 0.179247 0.26591
25301 5 0.038195 0.147474 0.264489
25242 1 0.0123999 0.182426 0.261824
25376 5 0.0380296 0.216605 0.261773
25298 2 0.0625217 0.216083 0.257778
25289 6 0.0902777 0.163376 0.308482
25366 1 0.00769844 0.245277 0.262807
25498 9 0.0222659 0.191965 0.305875
25371 4 0.0669848 0.240596 0.254302
22690 1 0.116667 0.245689 0.262128
22773 5 0.12141 0.248359 0.280425
25322 5 0.0601956 0.24699 0.285303
22695 5 0.116355 0.186555 0.2864
25330 7 0.106932 0.224126 0.304626
25331 7 0.0911855 0.217307 0.313705
25321 5 0.0169151 0.246161 0.284338
25254 7 0.0888401 0.179057 0.309929
25499 9 0.0348168 0.235904 0.30695
20070 3 0.230514 0.128753 0.304685
22944 9 0.133626 0.13306 0.309661
22697 3 0.129238 0.246054 0.300686
22621 2 0.138471 0.125015 0.293554
22693 3 0.132713 0.175211 0.305918
22945 9 0.142762 0.183917 0.309595
22694 4 0.13618 0.150297 0.289915
22691 2 0.135181 0.175848 0.292827
22748 4 0.168231 0.181732 0.257086
22674 2 0.163166 0.156424 0.25921
22754 5 0.14052 0.152899 0.264094
20202 5 0.240541 0.211508 0.263608
22672 1 0.189476 0.152498 0.286738
20142 4 0.229701 0.214693 0.296231
20147 5 0.218045 0.181061 0.287349
22696 5 0.158494 0.185751 0.291353
20074 3 0.232729 0.18102 0.308141
20069 2 0.234694 0.190261 0.296089
22689 1 0.182878 0.215463 0.286743
20392 9 0.232821 0.165608 0.307858
20139 2 0.234431 0.240148 0.29428
20067 1 0.216549 0.183377 0.266204
22680 5 0.181065 0.148285 0.266682
22750 5 0.181971 0.210198 0.269236
22749 5 0.13884 0.206347 0.265433
20125 5 0.239923 0.154091 0.265132
22744 2 0.163114 0.205813 0.261422
22737 6 0.190483 0.21258 0.307821
22736 6 0.19074 0.15416 0.306702
22698 5 0.160214 0.245115 0.28802
20190 1 0.209949 0.244726 0.26449
22703 7 0.205764 0.206983 0.306456
20143 5 0.218648 0.249817 0.285321
22705 7 0.195625 0.166306 0.310576
22704 7 0.202516 0.142213 0.308839
24744 7 -0.000302173 0.168015 0.417657
22963 7 0.136634 0.219162 0.310466
20393 9 0.233776 0.242251 0.311154
22747 5 0.162738 0.222331 0.251496
17441 2 0.335727 0.127062 0.290661
17572 4 0.370829 0.181693 0.258668
20126 5 0.280602 0.152124 0.269923
20075 5 0.257555 0.184194 0.292473
20066 1 0.283839 0.152959 0.289747
17516 2 0.337944 0.176185 0.294598
17518 3 0.334712 0.185555 0.30638
20079 7 0.30606 0.196375 0.310222
20114 6 0.295456 0.207833 0.308454
17519 4 0.333305 0.151712 0.29499
17521 5 0.361212 0.179317 0.289848
20120 1 0.287948 0.213173 0.287856
17520 5 0.318857 0.18564 0.287768
17595 5 0.319635 0.243765 0.284551
17567 1 0.312857 0.18235 0.266677
20128 5 0.281311 0.209408 0.267978
17577 5 0.341698 0.152173 0.261691
17573 5 0.341755 0.211724 0.261171
17498 2 0.366259 0.156967 0.25868
20121 2 0.263155 0.146438 0.261488
17569 2 0.366145 0.207042 0.259344
20122 2 0.263194 0.216847 0.25957
20196 4 0.269211 0.241943 0.25741
20113 6 0.290883 0.145311 0.310245
17523 5 0.362038 0.240872 0.289344
17515 1 0.317235 0.244075 0.264803
17839 9 0.34533 0.178961 0.311004
17840 9 0.329787 0.227508 0.304658
20144 5 0.258728 0.242936 0.290796
17522 3 0.331151 0.242978 0.304626
17529 7 0.399511 0.207815 0.313189
17561 6 0.388649 0.202088 0.308693
14890 5 0.427989 0.126999 0.300277
15020 4 0.467021 0.245161 0.261986
17505 5 0.382035 0.147443 0.266622
17574 5 0.381677 0.215508 0.267807
17514 1 0.386396 0.213365 0.288197
14945 2 0.462458 0.142987 0.258387
14886 1 0.418159 0.180879 0.264975
14894 3 0.392423 0.152436 0.307065
14972 5 0.420518 0.184607 0.283746
14896 5 0.459666 0.18507 0.289918
14888 8 0.424163 0.149531 0.30893
12342 3 0.497352 0.21641 0.308967
14895 4 0.433322 0.172261 0.301406
14964 2 0.436561 0.239613 0.294999
14967 4 0.434273 0.214342 0.29735
14889 2 0.436387 0.189745 0.293222
17496 1 0.390604 0.150695 0.28842
14944 1 0.489016 0.213718 0.289129
14885 1 0.483885 0.148546 0.287515
14953 5 0.481998 0.210771 0.268846
14936 6 0.484436 0.151931 0.306881
14950 5 0.479807 0.149976 0.266777
15025 5 0.441127 0.214239 0.263991
14949 5 0.439763 0.149675 0.26237
14946 2 0.464519 0.220514 0.260972
15015 1 0.411138 0.245196 0.266007
14969 5 0.459678 0.247484 0.291557
14900 7 0.473139 0.158996 0.311423
17530 7 0.39355 0.186296 0.309334
14968 5 0.418238 0.247776 0.286939
12753 9 0.489937 0.230171 0.311724
11770 7 0.492272 0.0846671 0.405157
14901 7 0.498123 0.152065 0.311497
1825 7 0.00525587 0.0336549 0.337263
24710 7 0.00540086 0.23643 0.401022
25184 7 0.0950192 0.0293075 0.317425
24544 6 0.0804509 0.0283853 0.333094
24654 7 0.103388 0.0934452 0.336089
24655 7 0.086409 0.081432 0.328639
24614 6 0.092112 0.081504 0.336237
24820 9 0.0338099 0.0616121 0.334472
24550 1 0.0889969 0.0857377 0.355812
24571 2 0.034907 0.0633435 0.351185
24576 3 0.0313377 0.0510105 0.340023
24577 5 0.0574557 0.0544095 0.35351
24639 2 0.0359979 0.113103 0.351988
24643 4 0.0331643 0.0884183 0.349081
24644 5 0.0178078 0.118497 0.360394
24645 5 0.0593718 0.121176 0.354161
24649 5 0.0191459 0.0556213 0.359938
24568 1 0.0820944 0.0233302 0.354068
22022 5 0.117314 0.0567398 0.35678
22097 5 0.119407 0.116609 0.355323
24582 7 0.0910333 0.0397751 0.332847
24581 7 0.0675408 0.0356514 0.336161
22267 9 0.118765 0.0609106 0.336945
22017 1 0.119163 0.118437 0.374891
24560 5 0.083687 0.0900377 0.373424
22266 9 0.117189 0.00498347 0.335908
22268 9 0.132649 0.120363 0.330305
22024 3 0.130672 0.110806 0.336333
22633 7 0.176653 0.0501325 0.327112
22665 6 0.164192 0.0544992 0.323046
22634 7 0.151684 0.0552977 0.328036
22020 3 0.130011 0.0500862 0.337622
22032 7 0.194954 0.000990187 0.334108
22021 4 0.133374 0.0215444 0.3523
20065 6 0.24135 0.024368 0.321876
22631 7 0.181402 0.0973795 0.3271
22632 7 0.167567 0.104258 0.337443
19714 9 0.226142 0.0634176 0.334626
22666 6 0.182837 0.0995736 0.334572
19468 3 0.237003 0.112168 0.335322
19398 3 0.225453 0.0518691 0.339809
19466 2 0.23852 0.110401 0.347784
19469 4 0.238376 0.0854622 0.351579
19393 2 0.236292 0.0604917 0.350668
19474 5 0.220318 0.0556908 0.359421
22016 1 0.185686 0.085705 0.353683
22018 2 0.135605 0.0468679 0.350057
22023 5 0.160413 0.0504538 0.351677
22025 5 0.159406 0.116933 0.349961