ITEM: TIMESTEP
350000
ITEM: NUMBER OF ATOMS
25520
ITEM: BOX BOUNDS pp pp pp
-3.8361510969469753e-01 6.0082158699695178e+01
-1.9392043525153682e+00 5.9109489626516108e+01
-1.2633417138760207e+01 1.1190914954476597e+02
ITEM: ATOMS id type xs ys zs
25182 6 0.109802 0.0126892 0.154007
25252 6 0.112356 0.0791912 0.150661
25214 3 0.0465825 0.0461672 0.157159
25287 5 0.0331847 0.0493847 0.176197
25283 5 0.0750305 0.112486 0.170903
25282 5 0.0339904 0.113701 0.178771
25281 4 0.0463476 0.0832412 0.166338
25277 2 0.0501335 0.107973 0.169549
25215 5 0.0739031 0.0512411 0.171159
25209 2 0.0507744 0.0575252 0.16821
25188 1 0.103681 0.0812503 0.171401
25458 9 0.0487339 0.0555835 0.151006
25206 1 0.101729 0.0212108 0.172615
2433 1 0.0054347 0.019181 0.178541
25293 7 0.121945 0.0919192 0.148904
25280 5 0.0422235 0.122251 0.160181
25457 9 0.0479472 0.0072773 0.158817
25220 7 0.121806 0.00268714 0.15333
25219 7 0.103048 0.013707 0.147096
25292 7 0.123457 0.0673346 0.150824
22735 5 0.133988 0.113249 0.172785
22660 5 0.136521 0.0521561 0.172893
22905 9 0.143778 0.0385174 0.149712
22662 3 0.144651 0.11228 0.153846
22658 3 0.14936 0.0502729 0.153982
22656 2 0.155375 0.0428195 0.165592
20112 5 0.235434 0.0490038 0.171544
22663 5 0.174976 0.116479 0.16743
22654 1 0.201394 0.0835921 0.170689
22661 5 0.17881 0.0521783 0.16785
22669 7 0.217948 0.0298073 0.150111
22659 4 0.156534 0.0182456 0.166949
22563 1 0.206286 0.0186371 0.171614
22629 6 0.211349 0.0157379 0.151676
22630 6 0.202473 0.0764808 0.150066
22667 7 0.216006 0.0678615 0.148564
22668 7 0.191089 0.0647749 0.14892
20108 5 0.233916 0.117352 0.170001
22657 2 0.150842 0.122447 0.16488
20353 9 0.244632 0.0932611 0.149632
20106 3 0.248383 0.10849 0.151757
22670 7 0.223616 0.00599196 0.150062
20036 3 0.247153 0.05756 0.152434
20107 4 0.254312 0.0825906 0.16689
20352 9 0.258997 0.0544064 0.147333
20042 7 0.305274 0.00809115 0.143201
20104 2 0.253257 0.107435 0.164469
20031 2 0.253575 0.058031 0.164362
20118 7 0.323869 0.0855819 0.149759
20117 7 0.32589 0.0608059 0.153034
20077 6 0.31469 0.0722834 0.151034
17480 3 0.353446 0.0427246 0.153829
17799 9 0.365075 0.052256 0.151509
17478 2 0.352156 0.0412328 0.166282
20109 5 0.276434 0.114928 0.167955
17482 5 0.332759 0.0512805 0.172149
20037 5 0.27562 0.0476406 0.167554
20011 1 0.304033 0.0799678 0.171263
20028 1 0.299787 0.0166493 0.170805
17481 4 0.350589 0.0166074 0.169295
20003 6 0.307858 0.0163371 0.150778
17560 5 0.334609 0.112185 0.173128
17484 3 0.344959 0.105263 0.153873
20041 7 0.322057 0.0235153 0.150049
17479 2 0.350596 0.119792 0.163794
17800 9 0.358963 0.0979443 0.151728
17485 5 0.373833 0.11417 0.168312
17483 5 0.373605 0.0505911 0.171259
17490 7 0.403603 0.0839909 0.145529
17489 7 0.418272 0.0742513 0.154247
17451 6 0.402115 0.0767986 0.152438
14856 3 0.445091 0.0385766 0.158315
15246 9 0.457421 0.0296308 0.157654
14929 4 0.445707 0.0803276 0.165467
14926 2 0.449581 0.105465 0.167073
14851 2 0.44998 0.0554912 0.168177
14931 5 0.473416 0.107805 0.171114
14857 5 0.473759 0.0518979 0.171872
17476 1 0.396635 0.0828929 0.172953
14934 5 0.433381 0.0502868 0.176519
14930 5 0.432663 0.114464 0.174722
17384 1 0.404048 0.0192478 0.173524
17450 6 0.408086 0.0141318 0.152698
17492 7 0.421597 0.0236825 0.152761
17491 7 0.408321 0.00496535 0.145878
14928 3 0.450165 0.120206 0.156621
14848 1 0.499402 0.0200804 0.176801
15247 9 0.4657 0.122924 0.155015
20008 7 0.189769 0.00469429 0.245362
25353 3 0.0452036 0.241789 0.156311
2033 7 0.0530484 0.137767 0.134465
25253 6 0.107944 0.153214 0.151459
2032 7 0.0506297 0.164294 0.136254
1995 6 0.0420455 0.148941 0.13796
25275 1 0.0996865 0.145944 0.172198
25278 8 0.0315626 0.145016 0.152692
22957 9 0.0908924 0.211462 0.148403
22732 3 0.103762 0.213124 0.153998
25285 4 0.0395248 0.166768 0.160925
25359 5 0.0337125 0.180623 0.179856
25356 5 0.0704929 0.238907 0.171751
25354 4 0.0461368 0.20703 0.166407
25351 2 0.0478432 0.231674 0.168286
25286 5 0.072484 0.175357 0.171682
25279 2 0.0483052 0.181659 0.169294
25259 1 0.102749 0.208494 0.172528
25355 5 0.0295953 0.239711 0.17512
25433 7 0.046394 0.191131 0.148037
25394 6 0.0552877 0.201362 0.144002
25432 7 0.0513249 0.214162 0.148468
1933 1 0.00296369 0.143878 0.174897
25291 7 0.118174 0.165403 0.152114
25290 7 0.119456 0.141849 0.151482
2104 7 0.00836645 0.206392 0.14836
25284 3 0.00255743 0.146018 0.156652
22906 9 0.156663 0.102801 0.15096
1963 7 0.145121 0.229881 0.132725
1962 7 0.153257 0.203034 0.131913
22741 7 0.228719 0.131839 0.151109
22740 7 0.224906 0.154923 0.148167
1927 6 0.13992 0.21251 0.134826
22726 8 0.133816 0.211018 0.150331
22730 5 0.133314 0.178703 0.176315
22700 6 0.215859 0.14169 0.150046
22636 1 0.203627 0.145719 0.169761
22729 4 0.147353 0.147143 0.164744
22733 4 0.140085 0.232347 0.159498
20188 7 0.206105 0.231717 0.152433
20189 7 0.223691 0.215032 0.153495
20148 6 0.207515 0.215703 0.152386
22728 5 0.142144 0.186605 0.158059
22725 2 0.149132 0.17194 0.16692
20178 5 0.232542 0.239167 0.173525
20183 5 0.234266 0.178885 0.173628
22723 1 0.198232 0.208657 0.172985
22731 5 0.17316 0.178452 0.168437
22734 5 0.172453 0.236813 0.171241
22807 5 0.13304 0.242115 0.178921
20110 3 0.245041 0.175199 0.154736
22727 2 0.148689 0.244822 0.169098
20177 4 0.25055 0.209001 0.163104
20354 9 0.239346 0.187737 0.150136
20176 5 0.246125 0.249706 0.156122
20105 2 0.252391 0.184152 0.165707
20173 2 0.2523 0.234468 0.165506
17555 4 0.347261 0.144785 0.16251
20102 1 0.300386 0.144981 0.169222
17554 3 0.349326 0.179666 0.150416
17801 9 0.353852 0.194981 0.15015
17558 3 0.341847 0.229689 0.15315
17552 2 0.351851 0.169604 0.162112
17556 5 0.333507 0.179317 0.168973
20111 5 0.276588 0.17589 0.166707
20084 1 0.305654 0.209236 0.168626
20179 5 0.275921 0.242384 0.16764
17631 5 0.333583 0.242531 0.170851
17802 9 0.34447 0.235988 0.146321
17553 2 0.350229 0.245846 0.161963
17559 5 0.373906 0.240535 0.16552
17557 5 0.375031 0.174006 0.165496
14898 6 0.499341 0.132712 0.151815
17564 7 0.388715 0.219461 0.143833
17566 7 0.422408 0.128608 0.148908
17563 7 0.379756 0.196314 0.145936
14938 7 0.443202 0.190423 0.141106
14937 7 0.423423 0.202061 0.135567
17565 7 0.417927 0.151782 0.144558
17525 6 0.41389 0.141757 0.150471
17459 1 0.403246 0.145322 0.171655
17526 6 0.392027 0.206287 0.147863
14899 6 0.439288 0.202703 0.136591
15248 9 0.445462 0.15337 0.153976
15002 3 0.444362 0.236842 0.1495
14932 3 0.448588 0.168772 0.152688
15000 2 0.45069 0.230761 0.161374
15003 4 0.453964 0.205523 0.161598
14927 2 0.452431 0.181135 0.163927
15005 5 0.473437 0.240749 0.163459
14933 5 0.474518 0.173531 0.167641
15004 5 0.430986 0.235617 0.168331
17550 1 0.39777 0.20769 0.168562
15008 5 0.432587 0.175288 0.170882
15249 9 0.443751 0.22396 0.144728
14924 1 0.498717 0.143136 0.171949
14940 7 0.495009 0.123279 0.146052
17539 5 0.395723 0.206648 0.188271
25269 6 0.00127052 0.113745 0.244623
25471 9 0.0690071 0.0094831 0.244955
25198 5 0.100147 0.0772516 0.193224
25195 5 0.0987825 0.0207176 0.193347
25268 5 0.0570366 0.0783911 0.196475
25258 1 0.0278897 0.113387 0.196273
25207 1 0.0315024 0.0501093 0.197322
25191 2 0.0800105 0.0874837 0.199487
25263 4 0.0779756 0.112854 0.199895
25197 4 0.0805891 0.0803984 0.21127
25192 5 0.0805961 0.033966 0.210286
25196 3 0.0398883 0.0557359 0.21694
25190 8 0.0708588 0.0565433 0.218404
25510 9 0.0314673 0.0712309 0.218557
25517 7 0.0882548 0.0677216 0.237126
25240 6 0.0829031 0.0536289 0.232763
22685 7 0.0894987 0.101371 0.219607
25506 7 0.0750063 0.0438309 0.238649
22649 6 0.0937354 0.11251 0.225375
25194 5 0.0572392 0.0136992 0.198835
25189 2 0.0816905 0.0151824 0.202489
25201 6 0.0251308 0.0528108 0.245001
22684 7 0.0790241 0.11398 0.229874
25270 6 0.0544559 0.118732 0.236025
22760 7 0.10524 0.123419 0.239487
25308 6 0.0297402 0.108408 0.216863
22717 6 0.113492 0.118934 0.245892
25204 7 0.0329278 0.0177589 0.220275
25310 7 0.0565027 0.108122 0.242308
25205 7 0.0116286 0.00454947 0.218399
25237 7 0.0300367 0.0526147 0.237373
25271 7 0.0376135 0.115722 0.222895
25234 6 0.026808 0.00234416 0.220158
20061 7 0.116298 0.0877133 0.232195
22683 6 0.127981 0.0478938 0.211876
22651 7 0.112918 0.042637 0.214329
20009 7 0.215412 0.0065522 0.242298
25200 6 0.00653727 0.00488164 0.245948
25236 7 0.0231615 0.0364808 0.245535
25227 3 0.0658327 0.0220442 0.249631
25472 9 0.0514559 0.0699396 0.248618
22650 7 0.137304 0.0421413 0.218136
22643 5 0.198226 0.0869617 0.190522
17509 7 0.239641 0.00516434 0.226909
20062 7 0.132008 0.0663621 0.231821
22572 5 0.196761 0.0179207 0.191994
22686 7 0.153124 0.0246763 0.232298
22635 1 0.126575 0.0505337 0.192636
20083 1 0.227285 0.117654 0.191665
20134 7 0.228432 0.0689221 0.245933
22687 7 0.166076 0.0452708 0.231598
22648 6 0.150909 0.0405167 0.231491
20023 6 0.130015 0.0821923 0.233996
22919 9 0.152445 0.0828637 0.243978
22931 9 0.189894 0.0362846 0.21579
22655 1 0.130661 0.112139 0.192581
20029 1 0.231177 0.0539939 0.192326
22642 5 0.157304 0.083906 0.191761
20063 7 0.212268 0.0569412 0.223768
22637 2 0.179614 0.0788419 0.197165
22641 4 0.181922 0.0531502 0.197765
22565 2 0.180309 0.0288533 0.199874
22640 5 0.173608 0.0918546 0.207373
20060 6 0.236433 0.0578835 0.213422
20022 6 0.196081 0.0600347 0.224055
20064 7 0.196351 0.0725252 0.21957
22647 5 0.157216 0.0202421 0.19676
20096 6 0.213218 0.063471 0.245744
22571 3 0.187781 0.0229869 0.211572
22638 8 0.163442 0.114535 0.214884
22918 9 0.162505 0.0312014 0.245157
22965 7 0.173531 0.109775 0.234373
20098 7 0.229296 0.1127 0.219106
20131 6 0.226551 0.121323 0.212452
22644 3 0.134263 0.116429 0.210958
22688 6 0.176582 0.121644 0.228433
17471 6 0.244873 0.0159983 0.232083
17510 7 0.247302 0.0282116 0.227269
20097 6 0.210354 0.118559 0.246159
20132 7 0.195628 0.123728 0.242894
20130 6 0.245534 0.100067 0.231566
20024 7 0.249713 0.0487199 0.211818
22958 9 0.121233 0.123373 0.215483
22759 7 0.124763 0.10886 0.242401
20135 7 0.207409 0.0678501 0.23838
22576 7 0.182778 0.00801234 0.223104
20101 7 0.251365 0.0922202 0.237743
14826 6 0.49852 0.00754991 0.156887
22675 3 0.161383 0.091154 0.248758
20133 7 0.218004 0.11179 0.240347
20025 7 0.243531 0.0706573 0.215718
20100 7 0.258642 0.108331 0.229816
20365 9 0.259687 0.0232893 0.243897
17860 7 0.365301 0.00209127 0.224725
14979 1 0.424656 0.237816 0.187248
20020 5 0.29635 0.0805814 0.191814
20017 5 0.293836 0.0194511 0.19158
20016 5 0.253521 0.0227046 0.192901
17477 1 0.330168 0.114676 0.19278
17458 1 0.323272 0.0479646 0.193291
20095 5 0.255028 0.0839924 0.196027
17464 5 0.352118 0.0829021 0.196047
20013 2 0.278079 0.0887131 0.199372
20379 9 0.27319 0.0890865 0.216062
20089 4 0.280953 0.113521 0.199948
20019 3 0.282344 0.0809153 0.211189
20378 9 0.289316 0.0254982 0.211441
17466 6 0.318488 0.0505124 0.213748
17493 7 0.30712 0.0618845 0.214837
17494 7 0.333301 0.0589404 0.215691
17473 7 0.335747 0.110497 0.219191
14960 7 0.355993 0.0835152 0.221822
17548 7 0.290526 0.110711 0.220325
14918 6 0.341705 0.0859252 0.225021
14959 7 0.344469 0.0864883 0.232964
17469 5 0.355531 0.0149236 0.195216
17456 7 0.296578 0.0389944 0.244789
17457 7 0.314206 0.0497125 0.238166
20014 3 0.275125 0.0203104 0.209959
20012 2 0.273463 0.0119412 0.198101
17503 6 0.311393 0.0449535 0.245599
17499 3 0.36376 0.0848677 0.24552
17508 6 0.328523 0.120463 0.214052
17472 7 0.315112 0.126353 0.218688
17578 6 0.288405 0.122566 0.22503
17386 2 0.376305 0.0254092 0.200308
17583 7 0.309454 0.119056 0.235751
17463 4 0.372616 0.0503976 0.200288
17460 2 0.374964 0.0753382 0.200156
17813 9 0.378602 0.0882494 0.243163
17825 9 0.377807 0.0256516 0.217406
14838 5 0.494092 0.0221866 0.196837
14847 7 0.366365 0.0273405 0.235969
17465 5 0.392106 0.083601 0.192392
14846 7 0.389282 0.0371218 0.234967
14878 6 0.375818 0.0352429 0.230986
15272 9 0.480661 0.00512179 0.2204
17462 3 0.378943 0.0833747 0.212341
17391 3 0.381146 0.01581 0.211469
14906 1 0.422551 0.115593 0.194503
17392 5 0.396889 0.0195722 0.193903
17826 9 0.389711 0.073332 0.21531
14849 1 0.42957 0.053059 0.19664
14917 5 0.452573 0.0821335 0.198069
14837 5 0.453315 0.0223606 0.200051
14911 4 0.474823 0.115762 0.201659
14834 2 0.475585 0.0899839 0.201267
14839 3 0.479608 0.0828185 0.212782
14955 6 0.414949 0.0537557 0.214931
15273 9 0.478562 0.0957782 0.218132
14922 7 0.424961 0.0578184 0.221081
14923 7 0.404633 0.0435143 0.218411
15308 7 0.465539 0.0661281 0.22479
14884 6 0.454162 0.0533151 0.227645
15297 7 0.461278 0.0391659 0.224283
15303 9 0.411285 0.0724537 0.246547
14868 8 0.449505 0.0539454 0.242765
14835 3 0.480917 0.0186845 0.215848
14874 3 0.41837 0.0569264 0.245845
14833 2 0.475358 0.0133769 0.204099
14951 6 0.402676 0.114392 0.24332
14914 6 0.417875 0.119084 0.21442
14840 5 0.494499 0.0820703 0.193873
12366 6 0.480481 0.121737 0.22624
14941 7 0.40217 0.121935 0.214634
14904 7 0.409307 0.119405 0.236581
14905 7 0.388493 0.121796 0.243122
14844 7 0.407755 -0.00434708 0.21165
25343 6 0.00748503 0.234072 0.241138
25272 7 0.0151416 0.110299 0.218631
25309 7 0.0578879 0.133154 0.239406
25484 9 0.0919219 0.132659 0.215468
25267 5 0.0972614 0.206881 0.193498
25265 5 0.0954472 0.1443 0.191427
25348 7 0.0299469 0.188909 0.225058
25347 7 0.0118012 0.173319 0.221755
25512 9 0.0115475 0.184112 0.240416
25303 3 0.0226379 0.176994 0.245882
25260 2 0.0787215 0.138277 0.200398
25264 5 0.0563074 0.14841 0.198837
25332 1 0.0242328 0.236911 0.195114
25276 1 0.03143 0.177097 0.198541
25342 5 0.0563664 0.207192 0.198953
25337 4 0.077478 0.241407 0.199774
25261 2 0.0794894 0.215937 0.201236
25266 3 0.082302 0.211366 0.213506
25262 3 0.0888838 0.146481 0.211193
25485 9 0.097916 0.206736 0.214476
22720 7 0.109319 0.167604 0.21667
25377 6 0.0248118 0.179411 0.218994
25507 7 0.0762803 0.188254 0.225741
25518 7 0.0667074 0.163381 0.225109
25314 6 0.0734038 0.174469 0.230597
25297 8 0.0538248 0.177524 0.243545
22718 6 0.112403 0.18792 0.244967
22830 7 0.067779 0.228652 0.224526
22791 6 0.0607324 0.238829 0.229302
22829 7 0.0592691 0.230008 0.235907
25378 6 0.0223183 0.24015 0.215735
25381 7 -0.00073382 0.240901 0.234906
25345 7 0.0335668 0.242275 0.221352
22757 7 0.0990499 0.19111 0.240984
22751 3 0.123616 0.236955 0.243652
22758 7 0.12446 0.185288 0.240019
22756 6 0.118892 0.180048 0.214488
22825 6 0.117441 0.24173 0.216391
22796 7 0.101082 0.242318 0.215846
22960 9 0.116026 0.221881 0.243959
22747 5 0.162761 0.219976 0.250258
20208 7 0.196496 0.226166 0.246269
20099 7 0.213216 0.128993 0.213868
22954 7 0.173696 0.137012 0.231915
22646 5 0.198511 0.146793 0.191379
22706 1 0.126977 0.176366 0.194494
22713 5 0.198441 0.211032 0.194986
20103 1 0.230675 0.177308 0.193124
22719 7 0.127334 0.183752 0.220532
22716 5 0.154873 0.143256 0.193077
20154 1 0.227436 0.239339 0.19323
22724 1 0.128491 0.240324 0.197461
22722 7 0.155012 0.197622 0.237028
22645 4 0.176586 0.138884 0.208425
22712 5 0.155047 0.209349 0.198433
22639 2 0.176939 0.151022 0.197818
22708 2 0.1782 0.200924 0.200764
22711 4 0.176366 0.176569 0.198826
22710 3 0.183226 0.204422 0.212828
22932 9 0.186594 0.188461 0.216137
20167 7 0.210344 0.221631 0.212736
20204 6 0.220467 0.235992 0.21347
20092 3 0.239011 0.178006 0.212767
22721 7 0.153017 0.171964 0.238278
20406 9 0.228616 0.180195 0.219364
22966 7 0.173089 0.217209 0.227124
22745 8 0.154091 0.242607 0.241626
20166 6 0.192268 0.168385 0.223524
20206 7 0.179534 0.168603 0.227996
22755 6 0.150274 0.183634 0.233261
20205 7 0.187177 0.157701 0.217537
22762 6 0.170987 0.234031 0.229196
20169 7 0.203887 0.170153 0.238088
20203 6 0.216141 0.172897 0.242827
20170 7 0.228983 0.164929 0.239385
20165 6 0.210118 0.235645 0.245042
20207 7 0.215291 0.23285 0.237899
22679 3 0.16468 0.142241 0.247698
22920 9 0.155793 0.130302 0.247437
20368 9 0.270599 0.211253 0.243117
14985 4 0.478239 0.239883 0.198242
17544 6 0.309062 0.123203 0.243678
17582 7 0.293676 0.126775 0.244566
20367 9 0.265673 0.168188 0.246145
17618 7 0.30022 0.249572 0.232032
17651 6 0.2865 0.248784 0.228341
20123 3 0.267449 0.152082 0.245858
20091 5 0.295903 0.143385 0.188578
20094 5 0.298505 0.207313 0.188296
17617 7 0.283279 0.233119 0.228448
17827 9 0.36226 0.135612 0.211087
20127 3 0.263872 0.200198 0.24837
17571 3 0.363424 0.2162 0.246251
17549 7 0.282613 0.133469 0.219837
17531 1 0.323405 0.175278 0.189566
20090 5 0.257029 0.142402 0.192585
17551 1 0.330173 0.237077 0.190953
17538 5 0.354532 0.207099 0.190747
20164 5 0.257694 0.207498 0.19153
17543 5 0.353876 0.142697 0.193294
20085 2 0.279213 0.138775 0.197474
20086 8 0.269603 0.176854 0.214482
20087 2 0.280505 0.213319 0.195951
20159 4 0.280445 0.236942 0.201318
20088 5 0.279739 0.153144 0.20727
20093 4 0.279438 0.196703 0.20501
17547 7 0.321274 0.174496 0.21741
17540 3 0.337271 0.232874 0.210332
17579 6 0.327509 0.175507 0.210017
17546 7 0.342045 0.173132 0.212198
20136 6 0.28353 0.174191 0.228509
20413 7 0.27721 0.183343 0.23498
20402 7 0.285301 0.157474 0.231319
17534 8 0.367246 0.240305 0.213631
17580 7 0.33328 0.225068 0.242021
17545 6 0.324815 0.23906 0.244339
17815 9 0.369115 0.205461 0.241177
17504 3 0.374058 0.14556 0.248117
14997 7 0.368305 0.158318 0.226523
17814 9 0.374763 0.158519 0.24265
15026 6 0.374561 0.169245 0.231045
17850 7 0.3626 0.241473 0.234449
17584 6 0.373585 0.247907 0.228447
17536 5 0.37657 0.21843 0.205227
17854 9 0.329498 0.219793 0.214245
14947 3 0.462588 0.142257 0.24506
15261 9 0.476522 0.149843 0.244316
14991 5 0.454296 0.208374 0.191102
12329 7 0.435785 0.148764 0.235302
12291 6 0.423006 0.146 0.231283
17468 5 0.394141 0.147767 0.189177
15274 9 0.490004 0.163899 0.209309
14921 7 0.449342 0.173142 0.213059
14919 6 0.419605 0.188925 0.243645
17467 3 0.377248 0.139619 0.208943
15275 9 0.466569 0.192499 0.208546
14908 2 0.475907 0.140002 0.199183
12328 7 0.410462 0.147828 0.235484
14920 7 0.427102 0.166858 0.218725
14912 5 0.45465 0.14543 0.193547
15262 9 0.469457 0.218176 0.241188
12408 7 0.471019 0.123819 0.232811
14913 5 0.495177 0.145678 0.192157
14910 3 0.47815 0.153623 0.209558
14909 2 0.476543 0.213709 0.196369
17537 4 0.375453 0.176461 0.199678
15245 9 0.442378 0.00144908 0.155347
14996 7 0.390397 0.16709 0.229933
14915 3 0.478082 0.203249 0.207859
14952 3 0.469975 0.206957 0.246436
14992 6 0.404544 0.243714 0.24505
12407 7 0.475493 0.131445 0.220874
14958 7 0.423328 0.186845 0.236066
12353 7 0.48842 0.184957 0.241383
15031 7 0.395749 0.231952 0.24154
14957 7 0.4314 0.19893 0.245133
17533 2 0.377238 0.201767 0.195813
14956 6 0.433369 0.174297 0.212697
14942 7 0.424116 0.127408 0.22057
14916 5 0.494923 0.209584 0.18826
17461 2 0.376327 0.151543 0.197733
14925 1 0.429074 0.176092 0.192256
22795 7 0.118988 0.236116 0.223273
22955 7 0.167263 0.242257 0.221876
20168 7 0.211955 0.249136 0.21477
22612 6 0.171793 0.00240849 0.228514
20045 7 0.213768 0.00235311 0.215048
17427 4 0.359735 0.0111929 0.249976
25178 3 0.0285484 0.0572189 0.306675
25245 3 0.0279695 0.115828 0.304828
25251 5 0.0172465 0.0497095 0.286364
25246 4 0.0339884 0.0839056 0.292637
25243 2 0.0341397 0.109565 0.293312
25224 1 0.0888126 0.0845908 0.289902
25179 5 0.0577876 0.0519153 0.291972
25173 2 0.0341572 0.0588653 0.294575
25170 1 0.0848856 0.023825 0.289656
25232 5 0.0829517 0.0825525 0.267179
25230 5 0.0820383 0.0269843 0.268403
22671 1 0.109268 0.056905 0.267756
25171 1 0.0139927 0.0537137 0.265063
25229 5 0.0409595 0.0236702 0.264656
25294 1 0.00733662 0.113933 0.26517
25306 5 0.0396554 0.0855207 0.263997
25226 2 0.062758 0.0910461 0.260625
25225 2 0.0646663 0.0162682 0.261657
25496 9 0.0229645 0.0425378 0.308291
25288 6 0.0976276 0.085427 0.310634
25497 9 0.0244527 0.102403 0.309101
22619 1 0.115824 0.118496 0.26674
25300 4 0.0654284 0.116743 0.259775
25248 5 0.0580686 0.115434 0.291081
22699 5 0.117061 0.113119 0.287973
22624 5 0.119474 0.0582641 0.288568
25183 7 0.102448 0.0320447 0.308044
25218 6 0.0913659 0.0208967 0.309874
25256 7 0.107945 0.0731303 0.311209
25247 5 0.0155741 0.11507 0.285797
25184 7 0.102437 0.010635 0.313107
19366 7 0.338184 0.000488108 0.484178
25257 7 0.108008 0.0975666 0.308577
22626 3 0.128476 0.123782 0.30624
22622 3 0.132512 0.0565769 0.307718
22623 4 0.133445 0.0235398 0.2974
22681 5 0.139003 0.0281261 0.265569
22620 2 0.136748 0.049142 0.296103
19999 4 0.228248 0.0446396 0.29889
19993 2 0.237131 0.0626053 0.291526
20068 2 0.238187 0.112284 0.295105
20071 4 0.23495 0.0864662 0.295906
22625 5 0.160035 0.0545031 0.291274
22627 5 0.160419 0.112995 0.292957
22618 1 0.186172 0.0861154 0.288882
20076 5 0.220186 0.0609066 0.282744
22600 1 0.19102 0.0253106 0.290104
22609 5 0.178942 0.0222936 0.270072
22678 5 0.180335 0.0887989 0.268606
19990 1 0.214189 0.0543775 0.266208
22677 5 0.139658 0.0858439 0.26393
20129 5 0.24117 0.0921474 0.26629
20053 5 0.238584 0.025382 0.264034
22602 2 0.162796 0.0315047 0.262197
22673 2 0.163197 0.0810271 0.260355
22676 4 0.16597 0.0563174 0.260148
19998 3 0.192993 0.0268575 0.309646
19992 8 0.223587 0.0244317 0.308826
20119 1 0.212749 0.116548 0.266789
20072 5 0.21877 0.120467 0.287584
22944 9 0.139963 0.129233 0.310396
20409 9 0.184116 0.0175055 0.315892
22621 2 0.136502 0.123299 0.293916
22943 9 0.146728 0.055352 0.312164
20391 9 0.240592 0.117506 0.311637
20070 3 0.234373 0.124854 0.306039
22608 3 0.16485 0.0194351 0.250518
20000 5 0.260635 0.0534699 0.290533
17448 5 0.35907 0.115817 0.287908
17440 8 0.323582 0.0827638 0.307835
17446 3 0.293407 0.0814451 0.307024
17442 5 0.333156 0.0621916 0.299248
17447 4 0.32656 0.105656 0.298593
17443 4 0.333962 0.0229459 0.294005
17439 2 0.337441 0.0466425 0.290438
20048 1 0.292175 0.0849091 0.287954
19989 1 0.2843 0.0228736 0.288888
17445 5 0.359786 0.0543324 0.286015
17444 5 0.319158 0.0512934 0.282398
20057 5 0.28085 0.0847451 0.269021
17495 1 0.310435 0.0531672 0.265834
17506 5 0.338485 0.0175426 0.265673
20054 5 0.279495 0.0222064 0.269059
17438 1 0.317822 0.117259 0.263387
17501 5 0.340763 0.0853027 0.261474
17421 2 0.359719 0.0252971 0.260064
20050 2 0.264328 0.0938142 0.26115
20049 2 0.261466 0.0183727 0.260655
17497 2 0.361288 0.0750603 0.256638
20040 6 0.288211 0.0190055 0.308661
17500 4 0.361557 0.0498974 0.257103
20073 5 0.261108 0.118 0.290783
20124 4 0.269651 0.117795 0.257564
17524 5 0.3188 0.119614 0.280707
17441 2 0.334494 0.122119 0.290113
24819 9 0.0214401 0.00138464 0.341453
20004 7 0.302375 0.0145326 0.31144
17838 9 0.334105 -0.00123096 0.311684
20366 9 0.26727 0.064536 0.252167
20005 7 0.279738 0.0178095 0.315323
20056 3 0.262168 0.0793835 0.251059
14870 5 0.458068 0.0303439 0.249918
17380 7 0.400848 0.00407948 0.306328
17502 5 0.380108 0.0845051 0.263799
17428 5 0.379404 0.0182295 0.266939
17437 1 0.383484 0.0834484 0.284967
14822 3 0.428197 0.0480687 0.304787
14891 4 0.434283 0.081384 0.293375
14817 2 0.435219 0.0560528 0.293509
14887 2 0.434336 0.10578 0.29071
14823 5 0.458282 0.0475222 0.291811
17418 1 0.388519 0.0188678 0.286378
14893 5 0.458244 0.113472 0.287872
14897 5 0.419038 0.0504652 0.284864
14892 5 0.417642 0.111487 0.282003
14866 1 0.488262 0.0805393 0.287731
14814 1 0.480148 0.0192988 0.286364
14873 5 0.478082 0.0190487 0.266757
14876 5 0.481812 0.08 0.267453
14815 1 0.41385 0.0508463 0.265095
14943 1 0.409148 0.114031 0.263513
14954 5 0.440319 0.0805964 0.265223
17412 6 0.393363 0.0189248 0.30716
14869 2 0.462062 0.0894651 0.261126
14872 5 0.439964 0.0173519 0.26498
14867 2 0.460575 0.0127966 0.258582
14948 4 0.461381 0.114539 0.260893
14860 6 0.490784 0.0767638 0.30809
17379 7 0.405659 0.028873 0.307736
15286 9 0.430812 0.0605094 0.310228
14890 5 0.428421 0.120782 0.299849
14875 4 0.459376 0.0764244 0.250589
25255 7 0.0968084 0.133812 0.30998
25296 2 0.0622848 0.141226 0.26254
25241 1 0.0813249 0.147073 0.287057
25249 3 0.0294226 0.178436 0.305268
25360 6 0.0966266 0.200883 0.307747
25320 4 0.0317335 0.208655 0.291196
25317 2 0.0319677 0.233339 0.291007
25295 1 0.0868483 0.208835 0.288118
25250 5 0.055691 0.17671 0.290357
25244 2 0.032028 0.183602 0.29303
25325 5 0.0132314 0.172444 0.286549
25302 5 0.0791421 0.147082 0.271249
25305 5 0.0792708 0.209671 0.269594
22742 1 0.108225 0.179398 0.264035
25301 5 0.0381345 0.149009 0.266593
25242 1 0.0117343 0.177315 0.264807
25376 5 0.0374362 0.208507 0.26376
25298 2 0.0610852 0.213858 0.260953
25289 6 0.0837206 0.143575 0.308341
25366 1 0.0062406 0.240625 0.262541
25498 9 0.0265199 0.192156 0.309401
25371 4 0.0639994 0.238694 0.257983
22690 1 0.113737 0.240308 0.263231
22773 5 0.116961 0.240339 0.282542
25322 5 0.0547927 0.239803 0.287151
22695 5 0.115697 0.181231 0.285721
25330 7 0.110977 0.208882 0.30692
25499 9 0.0275988 0.232732 0.307891
25321 5 0.0128098 0.242895 0.284048
25331 7 0.10035 0.186183 0.309361
25299 5 0.0597444 0.156002 0.252685
22697 3 0.124622 0.23483 0.301608
25319 3 0.0301317 0.243548 0.302196
25304 4 0.0639647 0.19985 0.250995
22946 9 0.125003 0.246058 0.307513
22945 9 0.123946 0.161144 0.305976
22693 3 0.131665 0.17525 0.303442
22694 4 0.138045 0.146749 0.289995
22691 2 0.136234 0.172318 0.29101
22748 4 0.166739 0.177358 0.257155
22674 2 0.163773 0.153101 0.259505
22754 5 0.139533 0.148355 0.262835
20202 5 0.239646 0.206864 0.26382
22672 1 0.188766 0.146541 0.287853
20142 4 0.235201 0.207286 0.290923
20147 5 0.215947 0.172286 0.28519
22696 5 0.158307 0.180878 0.287085
20074 3 0.232721 0.175959 0.303491
20069 2 0.236051 0.181586 0.291492
22689 1 0.182621 0.208624 0.288276
20392 9 0.237894 0.161087 0.304994
20139 2 0.235296 0.231431 0.294301
20067 1 0.215684 0.177585 0.263461
22680 5 0.181582 0.144122 0.26721
22750 5 0.181232 0.206896 0.268053
22749 5 0.138952 0.204248 0.263629
20125 5 0.241994 0.148 0.262703
22744 2 0.162921 0.202581 0.259364
22737 6 0.195084 0.202833 0.308657
22736 6 0.193557 0.149859 0.308143
22698 5 0.157169 0.235055 0.288543
20190 1 0.209817 0.240065 0.265765
20143 5 0.216132 0.241595 0.287553
22704 7 0.208709 0.144443 0.30785
20393 9 0.238948 0.223759 0.311163
20141 3 0.231314 0.234546 0.306312
22702 7 0.204843 0.190226 0.30788
22692 2 0.134518 0.244446 0.291146
22705 7 0.196134 0.165838 0.308534
17572 4 0.368492 0.18149 0.255742
20126 5 0.283323 0.150944 0.265125
20075 5 0.258695 0.17339 0.287693
20066 1 0.284146 0.14616 0.286824
17516 2 0.337042 0.171944 0.294641
17518 3 0.332007 0.17996 0.306449
20114 6 0.293433 0.209094 0.308423
17519 4 0.335762 0.147154 0.294526
17521 5 0.358941 0.179405 0.290431
20120 1 0.28838 0.208026 0.287387
17520 5 0.317778 0.180888 0.288082
17595 5 0.315017 0.236761 0.285804
17567 1 0.312421 0.178832 0.266299
20128 5 0.282061 0.20976 0.266592
17577 5 0.342371 0.150156 0.261708
17573 5 0.341764 0.209898 0.263068
17498 2 0.366382 0.155973 0.258792
20121 2 0.264944 0.143059 0.257848
17569 2 0.364349 0.205711 0.257828
20122 2 0.262138 0.213123 0.259227
20196 4 0.267019 0.238482 0.256658
20113 6 0.290228 0.146575 0.307153
17523 5 0.357424 0.238796 0.287517
17515 1 0.316432 0.240674 0.264211
17839 9 0.336621 0.168982 0.311424
17840 9 0.324088 0.230916 0.305132
20144 5 0.258114 0.240842 0.291352
17522 3 0.336256 0.241843 0.303635
17529 7 0.361587 0.199582 0.308824
17530 7 0.362592 0.224288 0.307164
20079 7 0.304719 0.197252 0.308569
20081 7 0.304981 0.146306 0.309161
17517 2 0.335401 0.247449 0.29151
20080 7 0.281767 0.201894 0.311189
17561 6 0.372665 0.210383 0.307331
14966 3 0.431276 0.246337 0.304517
15020 4 0.465803 0.240238 0.256895
17505 5 0.381089 0.148387 0.268497
17574 5 0.382984 0.214313 0.264951
17514 1 0.382655 0.208538 0.286975
14945 2 0.459484 0.138969 0.257722
14886 1 0.416485 0.181565 0.26364
14894 3 0.390581 0.140473 0.306197
14972 5 0.419293 0.182712 0.280947
14896 5 0.457656 0.180414 0.288543
14888 8 0.421273 0.143964 0.307569
12342 3 0.492332 0.207094 0.305936
14895 4 0.426012 0.166155 0.298256
14964 2 0.434334 0.234257 0.293385
14967 4 0.430631 0.208291 0.295702
14889 2 0.433781 0.184558 0.291187
17496 1 0.390081 0.14726 0.286975
14944 1 0.487901 0.209253 0.287047
14885 1 0.482544 0.145798 0.286258
14953 5 0.47973 0.208034 0.266591
14936 6 0.486524 0.156998 0.306283
14950 5 0.476312 0.149552 0.265339
15025 5 0.441424 0.208179 0.261788
14949 5 0.436806 0.14844 0.261151
14946 2 0.464109 0.215623 0.258198
15015 1 0.411913 0.242818 0.265547
14969 5 0.456161 0.242517 0.288806
14968 5 0.416333 0.242444 0.286166
14901 7 0.47299 0.160228 0.310212
14900 7 0.489873 0.172863 0.304287
12753 9 0.480306 0.208227 0.311383
14977 7 0.445335 0.218927 0.313777
24544 6 0.0857368 0.0287075 0.334114
24654 7 0.105311 0.0867973 0.332836
24655 7 0.0838148 0.0823905 0.326822
24614 6 0.089798 0.0802027 0.333735
24820 9 0.0420908 0.0493619 0.334624
24550 1 0.0898916 0.0811194 0.354086
24571 2 0.036731 0.0549393 0.350989
24576 3 0.0335953 0.0420704 0.340381
24577 5 0.0600633 0.0495837 0.355022
24639 2 0.0344205 0.105174 0.350302
24643 4 0.0342842 0.0799616 0.347673
24644 5 0.0177337 0.109102 0.359586
24645 5 0.0565122 0.114407 0.354594
24649 5 0.0183759 0.0467091 0.3587
24568 1 0.0867982 0.0195611 0.354691
22022 5 0.117053 0.0510138 0.354573
22097 5 0.119567 0.11306 0.356013
24582 7 0.0839369 0.0301037 0.326377
24581 7 0.0853005 0.0443135 0.335665
24642 5 0.0266711 0.121986 0.34233
24652 7 0.0865722 0.121984 0.330783
1825 7 -0.00224237 0.0327634 0.33688
22266 9 0.123259 0.00285002 0.336605
22267 9 0.130474 0.0622459 0.3355
22020 3 0.138255 0.0486118 0.336577
22024 3 0.130293 0.105915 0.337211
22633 7 0.179409 0.0494052 0.318471
22665 6 0.168115 0.0597355 0.320612
22634 7 0.159994 0.0516602 0.326441
22032 7 0.207373 0.00884263 0.334806
22021 4 0.140263 0.0188512 0.35164
20065 6 0.244491 0.0288246 0.320585
22631 7 0.186378 0.0782217 0.327057
22632 7 0.195565 0.100654 0.329071
19714 9 0.2206 0.066743 0.335106
22666 6 0.19573 0.0862384 0.332547
19468 3 0.23936 0.111843 0.334435
19398 3 0.23173 0.0566117 0.338047
19466 2 0.237595 0.11018 0.347029
19469 4 0.235709 0.0854198 0.351442
19393 2 0.236873 0.0604843 0.349889
19474 5 0.219716 0.0501804 0.357135
22016 1 0.185643 0.083207 0.352241
22018 2 0.138493 0.0438747 0.349027
22023 5 0.161408 0.0536554 0.352334
22025 5 0.161018 0.112343 0.350039
21925 1 0.189506 0.0206022 0.357313
21991 6 0.197216 0.0208515 0.337147
22031 7 0.201622 0.0320014 0.331402
20416 7 0.240586 0.0432827 0.325004
19470 5 0.217306 0.119135 0.353
20415 7 0.245578 0.0158215 0.326278