ITEM: TIMESTEP
587000
ITEM: NUMBER OF ATOMS
25520
ITEM: BOX BOUNDS pp pp pp
-3.8591642380616947e-01 6.0084460013807174e+01
-1.9415278524408277e+00 5.9111813126440232e+01
-1.2638157201577741e+01 1.1191388960758576e+02
ITEM: ATOMS id type xs ys zs
25182 6 0.0966805 0.0201553 0.152289
25252 6 0.108477 0.0861485 0.151059
25214 3 0.0386426 0.0498559 0.158706
25287 5 0.0343177 0.0540771 0.178052
25283 5 0.0716365 0.118033 0.172019
25282 5 0.032174 0.116239 0.178268
25281 4 0.0467449 0.086891 0.165633
25277 2 0.0484791 0.112287 0.168627
25215 5 0.0752726 0.0581965 0.170463
25209 2 0.050357 0.0610518 0.168784
25188 1 0.103769 0.0863349 0.171715
25458 9 0.0389847 0.0594845 0.152715
25206 1 0.0988655 0.0224551 0.172757
25292 7 0.119607 0.0730943 0.151318
25293 7 0.119641 0.0970966 0.15042
15262 9 0.452845 0.194695 0.247333
25219 7 0.0948456 0.00581447 0.14898
25220 7 0.0890081 0.0313863 0.147514
2433 1 0.00364232 0.0226352 0.178182
25457 9 0.0363392 0.00792722 0.159254
22735 5 0.13086 0.117406 0.174281
22660 5 0.13343 0.0542651 0.173074
22905 9 0.153432 0.0491287 0.149186
22662 3 0.143533 0.114244 0.15497
22658 3 0.146172 0.0566549 0.154769
22656 2 0.152422 0.0467898 0.165787
20112 5 0.234559 0.0536399 0.176668
22663 5 0.17403 0.121607 0.169623
22654 1 0.199289 0.0867078 0.171951
22661 5 0.176597 0.0553334 0.167831
22659 4 0.149339 0.021672 0.16636
22563 1 0.203441 0.0205853 0.17385
22629 6 0.203562 0.031525 0.154943
22630 6 0.198023 0.0850916 0.151577
22667 7 0.183915 0.076709 0.150638
22668 7 0.19765 0.0942059 0.14554
20108 5 0.234698 0.117706 0.173585
22670 7 0.191521 0.041423 0.156993
20036 3 0.247212 0.0491889 0.156564
20352 9 0.254375 0.0569057 0.151057
22669 7 0.21596 0.0415717 0.153092
20106 3 0.242678 0.11944 0.154492
22657 2 0.149638 0.126004 0.166671
22906 9 0.148316 0.125825 0.149927
20353 9 0.246906 0.107834 0.148899
20031 2 0.250869 0.0590912 0.167645
20107 4 0.247914 0.0842419 0.166426
20104 2 0.251199 0.109954 0.165092
22517 7 0.262404 0.0280555 0.145298
20118 7 0.317251 0.0710252 0.153135
20117 7 0.319117 0.0972969 0.15377
20077 6 0.30968 0.0845365 0.155857
17480 3 0.342107 0.0529774 0.158237
17799 9 0.338489 0.0389564 0.154373
17478 2 0.350265 0.0474877 0.169756
20109 5 0.273776 0.118793 0.168896
17482 5 0.334366 0.0571674 0.177397
20037 5 0.27359 0.0530257 0.171605
20011 1 0.301974 0.086053 0.173595
20028 1 0.299857 0.0235359 0.175532
17481 4 0.349856 0.022507 0.17233
17560 5 0.330751 0.125274 0.176568
17484 3 0.344718 0.113217 0.15741
20003 6 0.301555 0.0115237 0.156194
17485 5 0.370882 0.122956 0.173656
17483 5 0.373087 0.0568023 0.172671
20042 7 0.294573 0.0227845 0.151202
22482 6 0.273368 0.0201283 0.141402
17800 9 0.352025 0.120753 0.151034
22518 7 0.268951 0.00491463 0.142623
22920 9 0.178675 0.136469 0.249662
17489 7 0.409757 0.0747276 0.151064
17490 7 0.42423 0.091437 0.15568
17451 6 0.409152 0.0881917 0.154969
14856 3 0.449477 0.0494494 0.159868
15246 9 0.464508 0.0456639 0.157692
14929 4 0.447229 0.0864105 0.170317
14926 2 0.449633 0.111214 0.171195
14851 2 0.44968 0.0616367 0.170902
14931 5 0.474072 0.116871 0.174792
14857 5 0.472888 0.0550744 0.175084
17476 1 0.395787 0.0892132 0.174883
14934 5 0.432206 0.0527242 0.178675
14930 5 0.433791 0.117207 0.180146
17384 1 0.400904 0.023184 0.176903
17450 6 0.41246 0.0211265 0.157612
17492 7 0.424541 0.0315199 0.156694
14848 1 0.495591 0.0222287 0.177958
17491 7 0.421423 0.00743483 0.156545
14862 7 0.481726 0.00746974 0.157317
14826 6 0.493237 0.0198801 0.157387
14928 3 0.442627 0.120271 0.159747
14994 7 0.411675 0.24039 0.220889
2065 6 -0.000927741 0.198925 0.158381
25280 5 0.0386783 0.126663 0.160028
25290 7 0.111611 0.169694 0.154504
2033 7 0.0293469 0.142462 0.132528
25253 6 0.0983722 0.159027 0.154268
2032 7 0.0430531 0.165389 0.135541
1995 6 0.0304496 0.155264 0.138234
25275 1 0.0955638 0.150118 0.17378
25278 8 0.0288923 0.150054 0.153646
22957 9 0.0890567 0.228856 0.157922
22732 3 0.0998561 0.216673 0.157205
25285 4 0.0416198 0.17035 0.162375
25359 5 0.0304262 0.183043 0.180581
25356 5 0.0712883 0.243216 0.172109
25354 4 0.0472277 0.210168 0.168567
25351 2 0.0470405 0.235506 0.169781
25286 5 0.0698322 0.178318 0.174645
25279 2 0.0470836 0.1853 0.17184
25259 1 0.101026 0.212513 0.17652
25355 5 0.0328843 0.242922 0.179091
25394 6 0.0716284 0.187436 0.145982
25291 7 0.0854202 0.166015 0.149708
25432 7 0.0599013 0.185522 0.151742
25433 7 0.0812073 0.198189 0.149327
2104 7 0.0145051 0.194392 0.157546
25459 9 0.0391926 0.234011 0.153628
1962 7 0.11945 0.205053 0.132639
1933 1 0.00134073 0.148898 0.177271
25353 3 0.040035 0.246027 0.158747
22741 7 0.219143 0.137933 0.151282
22726 8 0.129346 0.216032 0.152574
1963 7 0.147605 0.20675 0.134901
22740 7 0.219371 0.163141 0.14955
1927 6 0.131651 0.215396 0.137067
22730 5 0.130235 0.177846 0.177385
22700 6 0.209686 0.15086 0.151838
22636 1 0.202329 0.149845 0.172671
22729 4 0.145449 0.150961 0.165162
22733 4 0.140483 0.236427 0.160592
20188 7 0.199114 0.238783 0.15355
20189 7 0.220574 0.226599 0.156649
20148 6 0.20427 0.224032 0.155186
22728 5 0.138111 0.192374 0.15988
22725 2 0.146393 0.175325 0.167916
20178 5 0.232208 0.239439 0.178466
20183 5 0.229248 0.179138 0.171819
22723 1 0.194796 0.210636 0.174095
22731 5 0.169542 0.180668 0.17171
22734 5 0.171883 0.245229 0.172698
22807 5 0.131882 0.243048 0.178769
20110 3 0.247259 0.179776 0.153424
20173 2 0.249894 0.237885 0.16948
20105 2 0.247996 0.188738 0.165261
20177 4 0.246665 0.214094 0.164887
20354 9 0.261031 0.182007 0.149775
15274 9 0.497929 0.157238 0.215848
17479 2 0.348917 0.127603 0.167838
17555 4 0.347883 0.151112 0.162826
20102 1 0.295438 0.150318 0.172994
17554 3 0.347309 0.188973 0.154981
17801 9 0.344946 0.204281 0.156057
17558 3 0.34115 0.237348 0.156721
17552 2 0.349301 0.176535 0.165874
17556 5 0.328339 0.181547 0.172527
20111 5 0.270009 0.181815 0.170036
20084 1 0.302111 0.21126 0.173015
20179 5 0.27286 0.240769 0.173752
17631 5 0.332103 0.240936 0.176349
17557 5 0.371624 0.182162 0.171351
17559 5 0.371867 0.24421 0.171511
17802 9 0.354181 0.23352 0.153048
12329 7 0.44547 0.140533 0.228209
17563 7 0.405775 0.199423 0.14869
17564 7 0.395332 0.221897 0.148051
15247 9 0.455491 0.127525 0.156615
17565 7 0.414425 0.133156 0.157395
17566 7 0.3935 0.143588 0.15261
14938 7 0.47471 0.21279 0.145785
14937 7 0.456617 0.197164 0.145163
17525 6 0.406211 0.146823 0.156428
17459 1 0.400313 0.150404 0.176954
17526 6 0.396725 0.209147 0.152957
14899 6 0.460829 0.209884 0.14157
15248 9 0.438109 0.164196 0.1563
15002 3 0.445731 0.240179 0.154853
14932 3 0.451219 0.173299 0.157297
15000 2 0.451696 0.234976 0.16679
15003 4 0.450453 0.210216 0.16879
14927 2 0.450657 0.185024 0.168191
15005 5 0.474377 0.243909 0.170566
14933 5 0.472698 0.176569 0.172851
15004 5 0.433187 0.241911 0.17464
17550 1 0.396205 0.212986 0.17271
15008 5 0.429542 0.178094 0.175329
15249 9 0.451745 0.228347 0.150194
14940 7 0.474988 0.154211 0.155063
14898 6 0.488586 0.14516 0.154551
14939 7 0.493594 0.149687 0.14726
14924 1 0.498438 0.147735 0.175023
25236 7 0.0242768 0.0507442 0.239977
22648 6 0.114927 0.0562125 0.249325
25227 3 0.0618215 0.030733 0.249186
25202 7 0.0790076 0.0160805 0.226488
25471 9 0.0623295 0.0197224 0.242931
25198 5 0.097165 0.0866663 0.193379
25195 5 0.0956786 0.0242122 0.192942
25268 5 0.055336 0.0831561 0.195403
25258 1 0.025407 0.117282 0.196237
25207 1 0.0311423 0.0547002 0.197381
25191 2 0.0767632 0.0926741 0.200209
25263 4 0.076111 0.117498 0.203009
25197 4 0.0755222 0.0791377 0.210372
25192 5 0.0749831 0.0348304 0.210057
25196 3 0.035715 0.058199 0.215894
25190 8 0.065609 0.0569635 0.218833
25510 9 0.0225057 0.0540862 0.220723
25517 7 0.0747723 0.0681221 0.238362
25240 6 0.0831629 0.0585942 0.23202
22685 7 0.0809368 0.10389 0.223233
25506 7 0.0839186 0.0439797 0.236852
22649 6 0.0874493 0.114855 0.2276
25194 5 0.0547734 0.0169861 0.197255
25189 2 0.078543 0.017114 0.201512
25308 6 0.0256952 0.111162 0.216482
25472 9 0.0622781 0.0973965 0.245289
25272 7 0.0333033 0.116319 0.222411
22635 1 0.123793 0.0553011 0.192911
25201 6 0.0139737 0.0539032 0.245796
25271 7 0.0134578 0.104473 0.219987
22650 7 0.110713 0.0417409 0.214745
22683 6 0.123288 0.0512847 0.213746
14958 7 0.397178 0.179473 0.238477
25309 7 0.0311803 0.124184 0.236849
22684 7 0.0750955 0.119325 0.232632
22759 7 0.106427 0.124248 0.23947
22717 6 0.11074 0.127828 0.246759
25235 6 0.0781143 0.00703346 0.232668
22958 9 0.119491 0.114374 0.219963
12291 6 0.446263 0.15569 0.230546
22687 7 0.1141 0.0627486 0.242141
22651 7 0.126933 0.0562949 0.220718
22655 1 0.130134 0.115559 0.194339
20062 7 0.144357 0.0826729 0.24039
20023 6 0.140733 0.0724653 0.234633
20134 7 0.219492 0.0655263 0.239914
20061 7 0.153998 0.0647194 0.232006
22643 5 0.19559 0.0855121 0.190069
22572 5 0.195126 0.020406 0.193478
20083 1 0.228046 0.116909 0.192906
20029 1 0.231283 0.0560621 0.195245
22642 5 0.155943 0.0802115 0.193552
20063 7 0.179078 0.04782 0.219105
22637 2 0.179373 0.0785865 0.198509
22641 4 0.182008 0.05339 0.201348
22565 2 0.177081 0.0284786 0.201346
22640 5 0.173128 0.0935948 0.207307
20060 6 0.224963 0.0550553 0.215701
20022 6 0.17994 0.0592261 0.224399
20064 7 0.1805 0.0723724 0.219876
22647 5 0.154064 0.0241616 0.196831
20096 6 0.211405 0.0566444 0.244463
22571 3 0.180681 0.017786 0.212257
22638 8 0.161982 0.114524 0.215648
22644 3 0.132344 0.111091 0.213983
17471 6 0.240157 0.0198801 0.228768
20135 7 0.197313 0.0534437 0.240339
22965 7 0.168406 0.107587 0.236594
22577 7 0.148139 0.0369001 0.236794
20025 7 0.208977 0.0561179 0.217323
22688 6 0.174932 0.116975 0.230589
22612 6 0.15413 0.0223845 0.234707
22576 7 0.164524 0.0254093 0.228722
20024 7 0.229118 0.0412663 0.220147
20101 7 0.242746 0.0727202 0.228672
20130 6 0.244526 0.0859595 0.232931
22918 9 0.161719 0.0210958 0.247212
22931 9 0.193347 0.00844953 0.212475
20098 7 0.226711 0.102205 0.218988
20131 6 0.221563 0.108495 0.212126
20132 7 0.210456 0.120505 0.241386
20099 7 0.206064 0.106422 0.212213
17510 7 0.24406 0.025052 0.236175
20008 7 0.193657 0.00512503 0.246541
20009 7 0.215999 0.000250439 0.242223
20097 6 0.210565 0.126126 0.248901
22652 7 0.14297 0.000855853 0.221144
17855 9 0.307824 -0.0133887 0.241186
20100 7 0.256364 0.0937416 0.228946
20016 5 0.253219 0.0255435 0.198653
17860 7 0.351523 -0.000871967 0.223409
20366 9 0.25746 0.084924 0.245088
17509 7 0.252548 0.0235442 0.22391
17456 7 0.29254 0.0702323 0.245303
20095 5 0.257529 0.0840065 0.198477
20020 5 0.2977 0.0856227 0.193132
20017 5 0.294299 0.0260345 0.196568
17477 1 0.328663 0.121015 0.196082
17458 1 0.323769 0.0558235 0.196943
17464 5 0.351683 0.0885015 0.199092
20013 2 0.279804 0.0937331 0.200845
20379 9 0.282838 0.0972552 0.217582
20089 4 0.278423 0.120092 0.201357
20019 3 0.286958 0.0860988 0.212135
20378 9 0.290937 0.0329421 0.216794
17466 6 0.31927 0.0509074 0.217632
17493 7 0.3267 0.0584098 0.223377
17494 7 0.307588 0.0617942 0.215915
14960 7 0.345761 0.0910896 0.233855
14918 6 0.336777 0.0914772 0.227687
14959 7 0.348766 0.089487 0.222541
17469 5 0.353051 0.0231681 0.200693
20014 3 0.278729 0.0225453 0.215472
20012 2 0.275126 0.0182552 0.203336
17503 6 0.301203 0.05596 0.245502
17499 3 0.363014 0.0915443 0.246712
17578 6 0.276577 0.1222 0.226054
17457 7 0.311175 0.0551675 0.239968
14847 7 0.363896 0.0582789 0.239496
17475 7 0.312203 0.00727662 0.220941
14846 7 0.364547 0.0343295 0.236356
17473 7 0.329177 0.118225 0.222712
17463 4 0.376976 0.0569369 0.203613
17460 2 0.374769 0.0818448 0.20276
14878 6 0.368682 0.048844 0.233654
17549 7 0.286088 0.125416 0.231682
22613 7 0.124181 0.00806084 0.240896
20051 3 0.260838 0.0298626 0.247928
17813 9 0.376592 0.099218 0.247237
17386 2 0.375986 0.0320291 0.204117
17825 9 0.375085 0.0295476 0.221215
17826 9 0.390528 0.0853767 0.217747
17462 3 0.380288 0.0937737 0.213869
17391 3 0.385475 0.0258081 0.214968
15272 9 0.474704 0.0047459 0.220751
14840 5 0.493555 0.0850727 0.197936
17465 5 0.391052 0.0891166 0.194081
14906 1 0.424648 0.117302 0.197751
17392 5 0.391469 0.0237596 0.195322
14849 1 0.427475 0.0553452 0.198393
14917 5 0.452809 0.0878151 0.202405
14837 5 0.451304 0.0259909 0.201695
14911 4 0.478931 0.118567 0.203985
14834 2 0.475946 0.0935493 0.205694
14839 3 0.480511 0.0888786 0.217271
14955 6 0.41284 0.0639935 0.218066
15273 9 0.473082 0.100026 0.2225
14922 7 0.401912 0.0528704 0.217257
14923 7 0.422411 0.0592334 0.223696
15308 7 0.467384 0.066952 0.226332
14884 6 0.455126 0.0553205 0.228836
15297 7 0.458834 0.0408156 0.224641
15303 9 0.401866 0.0557631 0.239438
14868 8 0.445103 0.0551542 0.243296
14835 3 0.477287 0.0195262 0.217357
14874 3 0.413773 0.0565641 0.24542
14833 2 0.473858 0.0168323 0.204875
14914 6 0.417009 0.120722 0.217926
14838 5 0.492304 0.0244343 0.197707
14941 7 0.405977 0.108436 0.219461
12366 6 0.453724 0.110774 0.230357
12408 7 0.451741 0.103483 0.237027
12407 7 0.440961 0.106249 0.226228
14844 7 0.406307 0.000740385 0.220593
14951 6 0.403037 0.122596 0.243647
14905 7 0.409656 0.126767 0.237468
14904 7 0.389589 0.131477 0.24399
14915 3 0.489269 0.209154 0.212471
25270 6 0.0477347 0.122438 0.236169
25310 7 0.052507 0.131937 0.242094
25512 9 0.00668002 0.179903 0.239488
25484 9 0.0882323 0.134272 0.219122
22757 7 0.11932 0.183653 0.23907
25267 5 0.0941685 0.214208 0.195381
25265 5 0.0955446 0.1491 0.195412
25303 3 0.0169847 0.179766 0.246181
25260 2 0.078274 0.142387 0.203356
25264 5 0.055119 0.150814 0.201012
25332 1 0.0253059 0.244603 0.198834
25276 1 0.0312031 0.181608 0.198622
25342 5 0.0548624 0.212126 0.199971
25337 4 0.0758063 0.246951 0.202371
25261 2 0.0764544 0.221603 0.203335
25266 3 0.0817514 0.21365 0.214441
25262 3 0.0880806 0.148578 0.214689
25485 9 0.0951639 0.204209 0.215518
22720 7 0.107056 0.172292 0.21808
25377 6 0.025344 0.178613 0.218774
25507 7 0.0605371 0.190251 0.224935
25518 7 0.0658839 0.165156 0.226281
25314 6 0.0654497 0.179849 0.230929
25297 8 0.0483977 0.178693 0.24458
22830 7 0.0751126 0.24023 0.225935
22751 3 0.116289 0.242468 0.244484
22756 6 0.118208 0.183627 0.216265
22758 7 0.0940732 0.174447 0.239434
22718 6 0.105397 0.182308 0.243799
25348 7 0.0255193 0.171646 0.225797
25347 7 0.00965538 0.182603 0.218395
25345 7 0.0108606 0.232302 0.221267
22706 1 0.123581 0.178491 0.19528
25378 6 0.0205848 0.245463 0.219127
22614 7 0.0992541 0.0045806 0.243354
9739 6 0.476761 0.241922 0.228164
22719 7 0.128401 0.183281 0.222246
17798 9 0.332744 -4.79e-05 0.156806
22955 7 0.16553 0.248316 0.223905
22954 7 0.175934 0.132895 0.233576
20208 7 0.225959 0.226017 0.246978
22724 1 0.130069 0.242547 0.197677
20167 7 0.209879 0.229833 0.218941
22646 5 0.195562 0.148134 0.191315
22713 5 0.193246 0.206426 0.19417
20103 1 0.230772 0.178233 0.194335
22716 5 0.15358 0.146673 0.194729
20154 1 0.223623 0.238636 0.19491
22722 7 0.148934 0.176442 0.24171
22645 4 0.175454 0.137077 0.2089
22712 5 0.15319 0.211253 0.198622
22639 2 0.17643 0.15323 0.199289
22708 2 0.175299 0.202651 0.202522
22711 4 0.172698 0.177478 0.202115
22710 3 0.18172 0.206551 0.214495
22932 9 0.184011 0.192396 0.218191
20204 6 0.223114 0.234657 0.21606
20092 3 0.232139 0.18005 0.213068
22721 7 0.153224 0.196267 0.235463
20406 9 0.219312 0.173998 0.218003
22745 8 0.147422 0.240756 0.242451
20166 6 0.1868 0.164998 0.225752
20206 7 0.171674 0.166081 0.229133
22755 6 0.146933 0.181843 0.234613
20205 7 0.185658 0.153784 0.21951
22762 6 0.158481 0.235313 0.228072
20169 7 0.205453 0.167778 0.238583
20203 6 0.211422 0.171633 0.245236
20170 7 0.227467 0.166617 0.245106
22966 7 0.168068 0.221771 0.225986
20165 6 0.210502 0.229179 0.244762
20207 7 0.205538 0.215917 0.241031
20168 7 0.231565 0.233385 0.222687
20133 7 0.218889 0.13856 0.247654
17583 7 0.324348 0.115135 0.236934
17544 6 0.315262 0.123007 0.242744
17548 7 0.276046 0.135947 0.222136
17508 6 0.331756 0.128617 0.216525
17472 7 0.34737 0.131966 0.217285
22796 7 0.122361 0.244022 0.2224
20090 5 0.256847 0.150955 0.193485
17504 3 0.36434 0.149093 0.247123
17617 7 0.276023 0.224837 0.222962
17582 7 0.327017 0.132255 0.245278
17581 7 0.301503 0.241256 0.236698
17545 6 0.310107 0.244395 0.243563
20367 9 0.258696 0.129756 0.243939
20164 5 0.256796 0.206425 0.195323
17651 6 0.277353 0.236969 0.228659
20368 9 0.263354 0.221634 0.241642
20091 5 0.298058 0.152575 0.194741
20094 5 0.299918 0.207071 0.195974
17531 1 0.325153 0.181222 0.195767
17551 1 0.329113 0.241909 0.196225
17538 5 0.355741 0.204861 0.195372
17543 5 0.355573 0.151487 0.198159
20085 2 0.277015 0.145426 0.200626
20086 8 0.2616 0.180622 0.218099
20087 2 0.277762 0.214152 0.200726
20159 4 0.277329 0.239753 0.20174
20088 5 0.271146 0.157987 0.210446
20093 4 0.275508 0.204456 0.211633
17547 7 0.315577 0.191136 0.222776
17540 3 0.331599 0.244958 0.216221
17579 6 0.327891 0.18802 0.217256
17546 7 0.340446 0.186274 0.221941
20136 6 0.273949 0.179803 0.23201
20413 7 0.276454 0.192569 0.237761
20402 7 0.2658 0.166573 0.236683
17534 8 0.362092 0.244573 0.217899
17814 9 0.364592 0.160455 0.241931
20127 3 0.25567 0.210885 0.245914
14996 7 0.370297 0.194856 0.237931
15026 6 0.37045 0.182608 0.231813
20123 3 0.256719 0.144466 0.246844
17571 3 0.357965 0.217334 0.246589
17815 9 0.346076 0.228898 0.245465
14997 7 0.373464 0.190846 0.225287
17536 5 0.371146 0.221473 0.210528
17854 9 0.319533 0.245031 0.221542
12353 7 0.486985 0.188198 0.244603
17539 5 0.395275 0.211583 0.193713
22760 7 0.125676 0.132448 0.24661
14942 7 0.40875 0.134584 0.218581
14925 1 0.431088 0.180134 0.196713
17468 5 0.396061 0.148082 0.197884
14979 1 0.425421 0.239159 0.19326
14921 7 0.433958 0.181718 0.220842
17827 9 0.37433 0.157706 0.221674
17467 3 0.375944 0.145804 0.216302
12406 7 0.497101 0.233936 0.239053
15030 7 0.434769 0.234633 0.246822
17537 4 0.38152 0.180227 0.205941
17861 7 0.381169 0.236113 0.236796
17533 2 0.377553 0.204426 0.201871
15261 9 0.457727 0.149451 0.24213
14991 5 0.455696 0.210611 0.200539
15275 9 0.48347 0.216691 0.218488
12328 7 0.459778 0.159829 0.226491
14957 7 0.424067 0.17427 0.239028
14952 3 0.464413 0.20575 0.249064
14909 2 0.478772 0.220148 0.202
15031 7 0.418791 0.243097 0.237942
17584 6 0.382416 0.246278 0.229897
14947 3 0.467329 0.151553 0.248548
14919 6 0.411516 0.180627 0.242816
14956 6 0.427996 0.193331 0.216958
14908 2 0.477346 0.143077 0.204009
14912 5 0.454166 0.149468 0.200244
14992 6 0.418524 0.238299 0.245564
14910 3 0.482071 0.153423 0.21546
14916 5 0.495706 0.212735 0.193285
14985 4 0.479343 0.24608 0.202944
12352 7 0.495224 0.163605 0.242406
17461 2 0.376596 0.155333 0.204736
14920 7 0.440908 0.200957 0.213822
14913 5 0.494507 0.150908 0.195561
15027 6 0.418429 0.246685 0.214382
17553 2 0.348663 0.248811 0.1676
25205 7 0.0150452 0.00822182 0.219707
20041 7 0.287781 0.00399275 0.159215
20365 9 0.275048 0.038854 0.24788
25178 3 0.0232314 0.0562518 0.306662
25245 3 0.0131186 0.116205 0.303849
25251 5 0.0102488 0.0526988 0.287318
25246 4 0.0299115 0.0860909 0.293503
25243 2 0.0271484 0.11094 0.29332
25224 1 0.0799158 0.0865104 0.28995
25179 5 0.051004 0.053721 0.290656
25173 2 0.0282935 0.0614246 0.294669
25170 1 0.077151 0.0239046 0.289119
25232 5 0.075177 0.0868701 0.269584
25230 5 0.0743512 0.0280885 0.269047
22671 1 0.105738 0.0563128 0.269152
25171 1 0.00901669 0.0538199 0.266266
25229 5 0.0362244 0.0204079 0.264502
25306 5 0.0341854 0.0845682 0.264611
25226 2 0.0573587 0.092151 0.261818
25225 2 0.0595324 0.0191798 0.260182
25496 9 0.00973448 0.0463485 0.307184
25288 6 0.0815636 0.0845894 0.311791
22619 1 0.108685 0.120032 0.267167
25300 4 0.0564475 0.117847 0.261797
25248 5 0.0506316 0.120823 0.29299
22699 5 0.109005 0.114146 0.288634
22624 5 0.111884 0.0570813 0.289117
25247 5 0.0106392 0.116733 0.284653
25218 6 0.0767865 0.0217469 0.310378
25497 9 0.00992536 0.102839 0.307882
25294 1 0.00436664 0.116034 0.264938
24744 7 0.00297486 0.154818 0.415735
22622 3 0.121741 0.0604406 0.308249
25183 7 0.0803591 0.00736694 0.313144
25231 3 0.0632724 0.0849395 0.250121
14607 9 0.442687 0.00137142 0.333267
22626 3 0.123171 0.121727 0.306628
22623 4 0.128457 0.0244541 0.298304
22681 5 0.136871 0.0279216 0.266211
22620 2 0.129518 0.0505728 0.297032
19999 4 0.223242 0.0458301 0.30293
19993 2 0.231852 0.0619216 0.294278
20068 2 0.232313 0.111077 0.29659
20071 4 0.228802 0.0859507 0.297944
22625 5 0.152765 0.0568519 0.293696
22627 5 0.152593 0.115658 0.29143
22618 1 0.179754 0.086564 0.290212
20076 5 0.215336 0.0588325 0.284985
22600 1 0.183113 0.0277267 0.290679
22609 5 0.176255 0.0304268 0.272695
22678 5 0.176626 0.0887324 0.270567
19990 1 0.211264 0.057246 0.265498
22677 5 0.133929 0.0880609 0.26553
20129 5 0.23689 0.0876243 0.264696
20053 5 0.235788 0.0258112 0.262832
22602 2 0.160573 0.0338827 0.263235
22673 2 0.157731 0.0833257 0.262443
22676 4 0.160122 0.0584918 0.259884
20119 1 0.20891 0.119516 0.268649
20072 5 0.214713 0.119884 0.288615
22665 6 0.186047 0.0867604 0.309689
19992 8 0.217221 0.0233646 0.311325
19998 3 0.186742 0.0264116 0.310649
22608 3 0.169969 0.0192834 0.254182
22675 3 0.163014 0.0965227 0.251887
20070 3 0.225318 0.119064 0.308169
19994 5 0.222935 0.00108569 0.302351
22621 2 0.128809 0.123345 0.294423
22633 7 0.202692 0.0864208 0.310578
22545 2 0.128357 0.000568139 0.29418
20000 5 0.255202 0.0568086 0.290403
17448 5 0.35455 0.117863 0.289705
17440 8 0.318514 0.0846879 0.309423
17446 3 0.288236 0.0836795 0.308295
17442 5 0.326099 0.0627753 0.30117
17447 4 0.320521 0.107205 0.299248
17443 4 0.335738 0.0251824 0.293696
17439 2 0.33313 0.0495305 0.291669
20048 1 0.286285 0.0868669 0.288924
19989 1 0.278957 0.0250669 0.287451
17445 5 0.354761 0.0587308 0.288335
17444 5 0.314295 0.0549639 0.283133
20057 5 0.277296 0.0866532 0.268895
17495 1 0.305716 0.0545851 0.266778
17506 5 0.3351 0.0271401 0.264831
20054 5 0.275966 0.0248748 0.267216
17438 1 0.312456 0.117607 0.263699
17501 5 0.334842 0.0875901 0.260921
17421 2 0.358616 0.0296181 0.260327
20050 2 0.260019 0.0953636 0.261158
20049 2 0.258499 0.0188968 0.259264
17497 2 0.358507 0.0807947 0.258131
20040 6 0.285461 0.0217766 0.307004
17500 4 0.359228 0.0554954 0.256775
20073 5 0.25475 0.117454 0.292126
20124 4 0.260178 0.120519 0.262017
17524 5 0.314645 0.118416 0.2818
17427 4 0.357735 0.0132383 0.251691
20056 3 0.269612 0.0899694 0.249823
17441 2 0.330155 0.122719 0.291078
20004 7 0.297302 0.0121124 0.309749
17428 5 0.378034 0.0260095 0.268423
17502 5 0.375597 0.087492 0.266276
17437 1 0.379052 0.0857461 0.286789
14822 3 0.425505 0.0521138 0.304453
14891 4 0.428867 0.0880192 0.294798
14817 2 0.431044 0.0621438 0.293391
14887 2 0.431099 0.111916 0.291482
14823 5 0.453371 0.0529167 0.289344
17418 1 0.383135 0.0225728 0.287561
14893 5 0.455867 0.116871 0.289195
14897 5 0.414236 0.055345 0.284755
14892 5 0.415107 0.115915 0.282542
14866 1 0.485222 0.0838389 0.288275
14814 1 0.477722 0.0230713 0.287989
14873 5 0.474796 0.0206866 0.267122
14876 5 0.476108 0.0815277 0.267227
14815 1 0.411828 0.0546581 0.265277
14943 1 0.404249 0.11765 0.264496
14954 5 0.436008 0.0831955 0.264131
17412 6 0.38984 0.0255468 0.308832
14869 2 0.457509 0.0913677 0.25997
14872 5 0.43344 0.0129966 0.264835
14867 2 0.45681 0.0134873 0.259623
14948 4 0.455908 0.116118 0.25782
14860 6 0.483404 0.0783351 0.308646
17380 7 0.399729 0.0128215 0.306923
14870 5 0.451949 0.0304293 0.250996
15286 9 0.429273 0.062796 0.31008
17379 7 0.400348 0.0384834 0.309739
14828 7 0.493772 0.0913373 0.309009
14875 4 0.458558 0.0782728 0.250158
14890 5 0.424518 0.126287 0.300441
25299 5 0.0586408 0.156397 0.251919
25255 7 0.0928128 0.130176 0.310591
25296 2 0.0560322 0.143396 0.262021
25241 1 0.0746362 0.148494 0.288714
25249 3 0.0190577 0.181076 0.303793
25360 6 0.0751369 0.222254 0.307483
25320 4 0.027886 0.214772 0.29386
25317 2 0.0286727 0.239322 0.293494
25295 1 0.0814907 0.211778 0.287663
25250 5 0.051725 0.180588 0.291093
25244 2 0.0279836 0.189534 0.293077
25325 5 0.0115123 0.182111 0.284719
25302 5 0.0727246 0.149851 0.27051
25305 5 0.0734356 0.213864 0.268743
22742 1 0.102329 0.178469 0.263727
25301 5 0.0332268 0.151648 0.265203
25242 1 0.00945868 0.180845 0.264713
25376 5 0.0319341 0.219675 0.265928
25298 2 0.0550159 0.218985 0.261254
25289 6 0.0819402 0.141966 0.309208
25498 9 0.0210459 0.192232 0.309655
25371 4 0.059372 0.243487 0.257988
22690 1 0.107421 0.242328 0.264083
22695 5 0.110146 0.180725 0.283715
22773 5 0.114264 0.242426 0.28218
25499 9 0.0279664 0.236864 0.310627
25330 7 0.0620119 0.232694 0.306021
25366 1 0.00315895 0.242215 0.26565
25331 7 0.0883961 0.232211 0.30847
22697 3 0.120133 0.244524 0.302194
25321 5 0.00881944 0.247242 0.28736
25322 5 0.0516089 0.246056 0.289214
25304 4 0.0535963 0.201957 0.25253
22945 9 0.110558 0.162685 0.305403
25319 3 0.0292161 0.24877 0.305646
22693 3 0.114715 0.176968 0.30292
22186 5 0.169274 0.249033 0.442956
22747 5 0.154189 0.218715 0.250883
22694 4 0.12777 0.147384 0.291212
22691 2 0.126984 0.173501 0.291833
22748 4 0.161769 0.178536 0.257752
22674 2 0.158969 0.153021 0.260912
22754 5 0.135137 0.148962 0.263731
20202 5 0.233083 0.213848 0.26243
22672 1 0.181378 0.148198 0.289336
20142 4 0.23224 0.207962 0.291459
20147 5 0.21193 0.174999 0.286439
22696 5 0.151365 0.181716 0.29162
20074 3 0.227205 0.179378 0.305473
20069 2 0.230818 0.182922 0.293234
22689 1 0.176963 0.208489 0.289431
20392 9 0.2342 0.191789 0.309235
20139 2 0.230226 0.233374 0.291525
20067 1 0.209319 0.180575 0.265238
22680 5 0.175292 0.147033 0.269427
22750 5 0.173788 0.206869 0.269429
22749 5 0.133143 0.203787 0.264028
20125 5 0.239234 0.154957 0.265014
22744 2 0.156547 0.203038 0.260459
22737 6 0.185807 0.209406 0.309793
22736 6 0.189006 0.148923 0.309744
22698 5 0.153347 0.238452 0.29007
20190 1 0.200716 0.240456 0.264684
20143 5 0.210895 0.239908 0.284998
20393 9 0.232009 0.231905 0.308281
20141 3 0.225929 0.242217 0.303261
22705 7 0.202349 0.158334 0.311147
22704 7 0.196973 0.135291 0.307752
22703 7 0.194244 0.196437 0.311839
22692 2 0.129933 0.249081 0.29101
22952 7 0.133827 0.225452 0.31245
11731 7 0.493879 0.24693 0.398535
20075 5 0.253518 0.175669 0.290209
20082 7 0.264422 0.164876 0.304602
20144 5 0.252861 0.243863 0.288835
17572 4 0.35838 0.182755 0.257564
20126 5 0.282522 0.15296 0.263422
20066 1 0.277961 0.146815 0.286357
17516 2 0.328114 0.17267 0.293441
17518 3 0.326119 0.182917 0.304495
20114 6 0.286018 0.214128 0.307349
17519 4 0.324739 0.147196 0.294582
17521 5 0.351771 0.179583 0.289686
20120 1 0.282858 0.209878 0.285587
17520 5 0.311125 0.181325 0.285554
17595 5 0.311171 0.240411 0.284598
17567 1 0.303606 0.179676 0.263837
20128 5 0.276211 0.209034 0.263918
17577 5 0.33628 0.149683 0.261195
17573 5 0.332206 0.211664 0.26182
17498 2 0.358807 0.157188 0.258945
20121 2 0.260479 0.145305 0.259537
17569 2 0.355538 0.206958 0.258042
20122 2 0.256125 0.218233 0.258149
20196 4 0.259512 0.243805 0.257735
20113 6 0.272697 0.151964 0.306545
17523 5 0.351382 0.240227 0.289463
17515 1 0.308168 0.24422 0.263977
17522 3 0.324835 0.242198 0.305295
17839 9 0.312413 0.19066 0.305526
20079 7 0.299092 0.222734 0.30897
20081 7 0.262623 0.139592 0.304001
17840 9 0.338797 0.236453 0.307505
17530 7 0.355843 0.196008 0.309494
17561 6 0.368358 0.205817 0.307652
20080 7 0.274355 0.217999 0.313091
17517 2 0.328397 0.249454 0.292909
17505 5 0.374622 0.14853 0.26749
17574 5 0.372451 0.215193 0.266452
17514 1 0.376923 0.211331 0.286873
14966 3 0.42454 0.242374 0.304934
15020 4 0.458585 0.240494 0.258721
14945 2 0.457567 0.140953 0.2588
14886 1 0.408137 0.179311 0.263421
14894 3 0.38679 0.149612 0.30759
14972 5 0.412552 0.180981 0.281396
14896 5 0.453002 0.176204 0.286801
14888 8 0.417867 0.149088 0.30856
12342 3 0.487888 0.20861 0.308119
14895 4 0.421122 0.169757 0.298886
14964 2 0.428852 0.234241 0.29323
14967 4 0.427784 0.20916 0.293565
14889 2 0.430102 0.184704 0.290423
17496 1 0.383421 0.149694 0.287845
14944 1 0.483868 0.211115 0.288635
14885 1 0.476951 0.147434 0.286407
14953 5 0.474017 0.208699 0.268735
14936 6 0.488779 0.153755 0.306554
14950 5 0.473172 0.146365 0.268267
15025 5 0.433894 0.210373 0.26336
14949 5 0.434088 0.149174 0.261617
14946 2 0.457919 0.215945 0.260331
15015 1 0.404123 0.242338 0.264919
14969 5 0.451756 0.239749 0.289785
14968 5 0.411669 0.242839 0.285577
14901 7 0.495227 0.168192 0.306197
25257 7 0.0946929 0.073991 0.310708
25256 7 0.0705427 0.0778581 0.316198
24819 9 0.0315529 0.00880099 0.341806
24544 6 0.0845873 0.0325689 0.336371
24654 7 0.103597 0.0979147 0.332834
24655 7 0.084857 0.0849412 0.328488
24614 6 0.0909475 0.0898078 0.335235
24820 9 0.0367514 0.0487748 0.334346
24550 1 0.086902 0.0853927 0.356278
24571 2 0.0334359 0.060234 0.350124
24576 3 0.0301102 0.0428512 0.341132
24577 5 0.0573043 0.0579626 0.354582
24639 2 0.0324516 0.110436 0.349179
24643 4 0.0318009 0.0850119 0.347454
24644 5 0.0140145 0.114766 0.357709
24645 5 0.0560949 0.115643 0.354137
24649 5 0.017029 0.0547143 0.359413
24568 1 0.0832533 0.0245655 0.356716
22022 5 0.115912 0.0581894 0.356964
22097 5 0.117468 0.11633 0.35667
24582 7 0.0725949 0.0441222 0.33483
24581 7 0.0993395 0.039403 0.334929
25186 7 0.0428591 0.0744995 0.323906
25217 6 0.0504272 0.06021 0.324008
25185 7 0.0451741 0.05303 0.317106
25184 7 0.0738587 0.0313189 0.316597
24642 5 0.0281189 0.124941 0.339331
22266 9 0.124388 0.0123401 0.336522
22943 9 0.134504 0.0627357 0.312523
22267 9 0.132089 0.0648535 0.336358
22268 9 0.12992 0.119901 0.331807
20391 9 0.232505 0.109744 0.313589
22634 7 0.18083 0.0844154 0.317105
20409 9 0.175851 0.0314156 0.316739
22024 3 0.133398 0.109452 0.337712
22032 7 0.207249 0.0416033 0.335909
22020 3 0.127526 0.0502375 0.338595
22021 4 0.13387 0.0224825 0.354049
20065 6 0.24028 0.0225385 0.321833
22631 7 0.192656 0.104487 0.332371
22632 7 0.169236 0.1009 0.336825
19714 9 0.229094 0.0766684 0.33647
22666 6 0.182235 0.0918281 0.333628
19468 3 0.228844 0.109315 0.335974
19398 3 0.231619 0.0609535 0.338276
19466 2 0.23442 0.111133 0.348126
19469 4 0.234799 0.0862734 0.352517
19393 2 0.236024 0.0613326 0.351043
19474 5 0.217275 0.0515503 0.35756
22016 1 0.18405 0.0845159 0.35424
22018 2 0.134636 0.0473013 0.350928
22023 5 0.159084 0.0542838 0.352471
22025 5 0.159755 0.114998 0.352257
21925 1 0.188299 0.0226553 0.356007