ITEM: TIMESTEP
239000
ITEM: NUMBER OF ATOMS
25520
ITEM: BOX BOUNDS pp pp pp
-3.8526366512770610e-01 6.0083807255126892e+01
-1.9408688008434303e+00 5.9111154074845203e+01
-1.2636812701440320e+01 1.1191254510744493e+02
ITEM: ATOMS id type xs ys zs
25182 6 0.111931 0.00719625 0.151492
25252 6 0.110765 0.0701651 0.152811
25214 3 0.0405578 0.0374305 0.158946
25287 5 0.0332487 0.0445402 0.177706
25283 5 0.0713761 0.107521 0.173888
25282 5 0.0318193 0.104433 0.180459
25281 4 0.0479573 0.0752653 0.167774
25277 2 0.0483014 0.10007 0.171328
25215 5 0.0730745 0.0418482 0.171382
25209 2 0.0494622 0.0502171 0.169226
25188 1 0.102678 0.074525 0.172867
25458 9 0.0424975 0.0465544 0.152717
25206 1 0.0995627 0.0125246 0.171241
2433 1 0.00368885 0.0126068 0.176515
25280 5 0.0406832 0.116721 0.162758
25293 7 0.121571 0.0807867 0.151631
25292 7 0.106756 0.0659613 0.146063
25219 7 0.124242 0.0158927 0.154334
22735 5 0.130391 0.106831 0.172703
22660 5 0.132667 0.0453766 0.173145
22905 9 0.166331 0.051501 0.152992
22662 3 0.145021 0.10501 0.153916
22658 3 0.152968 0.0417043 0.15433
22656 2 0.15335 0.0359374 0.167119
20108 5 0.233394 0.108063 0.172695
20112 5 0.234099 0.0465128 0.173045
22663 5 0.172845 0.107922 0.168995
22654 1 0.200407 0.0786462 0.171621
22661 5 0.174815 0.0470514 0.170685
22669 7 0.219525 0.024522 0.151521
22659 4 0.152484 0.0105214 0.166332
22563 1 0.204222 0.013421 0.173219
22629 6 0.209444 0.0125952 0.154269
22906 9 0.139519 0.117956 0.149564
22657 2 0.149059 0.114553 0.165562
20106 3 0.242737 0.113115 0.152413
20107 4 0.247827 0.0786985 0.163115
20036 3 0.244235 0.0424523 0.153838
20104 2 0.250585 0.103723 0.163832
20031 2 0.250562 0.0537517 0.164798
20352 9 0.247839 0.0530975 0.147895
20118 7 0.326187 0.0893652 0.152018
20117 7 0.330641 0.0630209 0.149519
20077 6 0.318989 0.0747302 0.151001
17480 3 0.350749 0.0412917 0.155041
17799 9 0.351839 0.0289903 0.150413
17484 3 0.349504 0.109303 0.152766
17478 2 0.351077 0.0333713 0.167149
20109 5 0.275799 0.111157 0.165639
17482 5 0.334908 0.0439791 0.174842
20037 5 0.274704 0.0490582 0.167471
20011 1 0.304486 0.0751342 0.170738
20028 1 0.298546 0.0137425 0.172287
17481 4 0.348894 0.00842127 0.167146
20003 6 0.295848 0.0200627 0.151871
17560 5 0.330351 0.105544 0.170614
17479 2 0.351769 0.113968 0.165157
17800 9 0.362503 0.102411 0.150705
20041 7 0.284194 0.0294399 0.154662
20042 7 0.3012 0.0289869 0.145562
17378 6 0.340704 0.00606259 0.141711
17414 7 0.326194 0.00818063 0.144901
17483 5 0.374999 0.0374742 0.170741
17485 5 0.374095 0.105873 0.168762
17490 7 0.421294 0.0792222 0.151159
17489 7 0.40409 0.0772896 0.142109
17451 6 0.405801 0.0771142 0.150215
14856 3 0.446419 0.0337651 0.157042
15246 9 0.459361 0.0269502 0.154981
14929 4 0.44723 0.0741427 0.164162
14926 2 0.451064 0.0990088 0.164506
14851 2 0.45038 0.0494927 0.166943
14931 5 0.474411 0.102736 0.168457
14857 5 0.474731 0.0468836 0.170412
17476 1 0.398322 0.075905 0.170019
14934 5 0.432687 0.0431941 0.175617
14930 5 0.433 0.108761 0.171756
17384 1 0.403464 0.0124665 0.173942
17450 6 0.40727 0.00676724 0.154258
17491 7 0.417144 0.019483 0.15452
14928 3 0.452132 0.10834 0.152404
14940 7 0.479678 0.118813 0.150923
15247 9 0.44204 0.12125 0.152207
14848 1 0.498819 0.0114183 0.175284
25291 7 0.104072 0.13909 0.14748
2033 7 0.0618249 0.135828 0.140587
2104 7 0.0167796 0.212026 0.156128
25290 7 0.082717 0.146983 0.152516
25253 6 0.0947803 0.136458 0.154114
2032 7 0.0487151 0.159036 0.138932
1995 6 0.0460247 0.1426 0.141572
25275 1 0.0936765 0.137369 0.174926
25278 8 0.031848 0.140371 0.155597
22957 9 0.0859519 0.213344 0.155769
22732 3 0.0980337 0.201922 0.156691
25285 4 0.0394301 0.164313 0.163025
25359 5 0.0322309 0.171631 0.181365
25356 5 0.0721649 0.234457 0.174732
25354 4 0.0502149 0.202336 0.169537
25351 2 0.0498849 0.227462 0.169943
25286 5 0.0718243 0.168305 0.173617
25279 2 0.0484382 0.177454 0.172392
25259 1 0.100865 0.202397 0.17641
25355 5 0.030214 0.235876 0.177003
25433 7 0.0452162 0.210497 0.147519
25394 6 0.0475924 0.195095 0.145107
25432 7 0.0470287 0.186899 0.151406
1933 1 0.00153846 0.137648 0.177747
25353 3 0.0443538 0.238832 0.158794
20009 7 0.1949 -0.0014261 0.245233
25284 3 0.0017827 0.138232 0.158644
2065 6 0.00200359 0.206329 0.156302
22667 7 0.131084 0.15386 0.148478
20353 9 0.249824 0.126354 0.150172
22668 7 0.127234 0.163261 0.137359
22740 7 0.216876 0.146001 0.149273
22741 7 0.200528 0.126513 0.147889
1962 7 0.145241 0.192554 0.134284
1927 6 0.134344 0.20456 0.137055
22630 6 0.129917 0.149533 0.140686
1963 7 0.143616 0.219535 0.135419
22726 8 0.126611 0.202295 0.152647
22730 5 0.132243 0.168037 0.176648
22700 6 0.201262 0.142582 0.150203
22636 1 0.202504 0.140322 0.169746
22729 4 0.147642 0.139756 0.163475
22733 4 0.137402 0.224588 0.16003
20188 7 0.219744 0.189979 0.152499
20189 7 0.198655 0.184002 0.146476
20148 6 0.203473 0.194494 0.151492
22728 5 0.138713 0.178835 0.15925
22725 2 0.147856 0.164463 0.167765
20178 5 0.231872 0.233877 0.17276
20183 5 0.233493 0.17354 0.172514
22723 1 0.196561 0.204023 0.170649
22731 5 0.171462 0.171642 0.169641
22734 5 0.169635 0.233226 0.171334
22807 5 0.131591 0.233165 0.178816
22727 2 0.145694 0.239769 0.169353
20176 5 0.243601 0.244062 0.154688
20110 3 0.242425 0.163117 0.154063
20354 9 0.252442 0.164783 0.14816
20177 4 0.248218 0.203726 0.161078
20105 2 0.250395 0.178692 0.163455
20173 2 0.249245 0.228712 0.164019
20056 3 0.263092 0.0812616 0.249271
17555 4 0.353148 0.140724 0.166642
20102 1 0.30003 0.140562 0.167711
17554 3 0.349627 0.165037 0.150595
17801 9 0.349913 0.149063 0.148642
17558 3 0.336402 0.222145 0.154606
17552 2 0.350432 0.165019 0.163683
17556 5 0.329675 0.174385 0.169557
20111 5 0.274867 0.174816 0.165337
20084 1 0.304805 0.202475 0.16828
17631 5 0.332368 0.237591 0.171972
17802 9 0.345081 0.208903 0.153961
20179 5 0.273881 0.232054 0.166373
17553 2 0.347995 0.239727 0.162199
17559 5 0.371779 0.232643 0.164944
17557 5 0.373126 0.172745 0.165265
20091 5 0.295375 0.141759 0.187984
17563 7 0.390127 0.205225 0.139498
14938 7 0.46758 0.188206 0.130454
14937 7 0.476011 0.193438 0.140946
17564 7 0.3986 0.225533 0.145886
17566 7 0.404906 0.141184 0.145198
17565 7 0.426329 0.1488 0.151668
17525 6 0.413018 0.138156 0.151361
17459 1 0.401314 0.140832 0.171033
17526 6 0.399916 0.209109 0.145645
14899 6 0.462888 0.19553 0.136529
15248 9 0.447578 0.181404 0.148458
15002 3 0.452483 0.230176 0.151074
14932 3 0.450125 0.167978 0.152621
15000 2 0.454362 0.22537 0.163199
15003 4 0.452047 0.200822 0.165676
14927 2 0.4526 0.175281 0.164704
15005 5 0.475702 0.234617 0.167509
14933 5 0.475763 0.167001 0.168071
15004 5 0.434373 0.234425 0.169041
17550 1 0.398771 0.203823 0.166908
15008 5 0.430947 0.168674 0.170297
14939 7 0.484793 0.141009 0.14741
15249 9 0.452613 0.217429 0.146584
14898 6 0.492831 0.128916 0.151181
14924 1 0.498424 0.135762 0.170718
17637 7 0.424547 0.2438 0.150143
25231 3 0.0630827 0.0786604 0.248358
25195 5 0.096634 0.0150142 0.192408
25198 5 0.0970571 0.0779857 0.191871
25268 5 0.0544537 0.0726884 0.196357
25258 1 0.0251318 0.107202 0.198606
25207 1 0.0323674 0.0441627 0.198262
25191 2 0.0771641 0.0826928 0.199341
25263 4 0.0750541 0.106675 0.202716
25197 4 0.0805761 0.0700277 0.209851
25192 5 0.0783226 0.0237945 0.210083
25196 3 0.0416237 0.0444257 0.217661
25190 8 0.0734811 0.0465281 0.218381
25510 9 0.0328961 0.0511296 0.22384
22684 7 0.107026 0.0942331 0.227052
25517 7 0.0816622 0.064582 0.236596
25240 6 0.0874276 0.0494588 0.232475
22685 7 0.0872077 0.0914727 0.219095
25506 7 0.0829525 0.0383472 0.238449
22649 6 0.093193 0.100078 0.225799
25194 5 0.0560446 0.00962612 0.195668
25189 2 0.0789831 0.0090442 0.200518
25201 6 0.01205 0.0577304 0.24659
25472 9 0.0608505 0.0898895 0.24326
25310 7 0.0677075 0.114412 0.230944
25308 6 0.0222817 0.110499 0.218839
25272 7 0.0155783 0.125497 0.218621
25271 7 0.0348642 0.110831 0.224482
25269 6 0.00846541 0.108827 0.24458
25270 6 0.053769 0.112976 0.235821
25311 7 0.0162167 0.107587 0.238007
22717 6 0.109435 0.10269 0.247556
25236 7 0.0170395 0.0716756 0.243251
22687 7 0.118731 0.0392994 0.234696
22759 7 0.121721 0.0922355 0.244881
25309 7 0.0557956 0.126361 0.24077
22760 7 0.100398 0.1034 0.241275
25204 7 0.0348823 0.0123045 0.218485
25484 9 0.0925563 0.122076 0.217434
25205 7 0.0105196 0.00130254 0.217111
22651 7 0.147489 0.0482059 0.21297
22958 9 0.128481 0.112539 0.218206
15030 7 0.394179 0.237628 0.241895
22683 6 0.134044 0.0400979 0.214617
20062 7 0.130522 0.0661306 0.232888
22635 1 0.125809 0.0450488 0.19386
20023 6 0.135213 0.0811793 0.233523
22648 6 0.132135 0.0339119 0.237588
22686 7 0.127492 0.0204015 0.241157
22650 7 0.13923 0.0332543 0.2208
22643 5 0.197698 0.0776346 0.190625
20061 7 0.149124 0.0795467 0.237874
20083 1 0.226203 0.110087 0.192393
22572 5 0.195982 0.0149575 0.192762
20135 7 0.214436 0.0613622 0.240619
22931 9 0.18095 0.0188823 0.218906
22655 1 0.131209 0.107233 0.193413
20029 1 0.231182 0.047707 0.193243
22642 5 0.155693 0.0727859 0.194523
20063 7 0.188094 0.0705608 0.221803
22637 2 0.178937 0.0724789 0.198775
22641 4 0.181128 0.048522 0.203526
22565 2 0.181572 0.0233156 0.202243
22640 5 0.17731 0.0892156 0.207977
20060 6 0.23497 0.051692 0.213153
20022 6 0.193677 0.0622125 0.227511
20064 7 0.204931 0.0543934 0.223761
22647 5 0.157727 0.0164229 0.199519
20134 7 0.235529 0.0647088 0.247906
20096 6 0.219981 0.0576336 0.247918
22571 3 0.18873 0.0111528 0.212622
22612 6 0.173595 0.0211002 0.232496
22577 7 0.179493 0.0359657 0.232078
22576 7 0.156926 0.0241046 0.233056
22638 8 0.170468 0.11307 0.215519
22918 9 0.167646 0.0193766 0.246217
22644 3 0.140636 0.112522 0.212354
22965 7 0.180045 0.114906 0.235703
22688 6 0.188686 0.117459 0.228137
20097 6 0.214002 0.118153 0.247799
20132 7 0.223347 0.119022 0.241582
20131 6 0.228731 0.107069 0.213074
20024 7 0.233973 0.0428554 0.219809
20099 7 0.24202 0.103675 0.217502
20025 7 0.249254 0.0596812 0.213852
20133 7 0.201669 0.108341 0.245805
17510 7 0.212274 0.0175917 0.22578
17471 6 0.226745 0.0183716 0.229295
22919 9 0.181507 0.0728808 0.246485
17509 7 0.222112 0.0214903 0.236465
20098 7 0.220211 0.113674 0.218986
25220 7 0.109346 0.0154939 0.144833
17475 7 0.309478 0.00282604 0.214263
20130 6 0.254877 0.110914 0.233991
20100 7 0.256573 0.122194 0.239848
20017 5 0.292744 0.0131737 0.191368
20020 5 0.296258 0.074454 0.191913
20051 3 0.269001 0.0188492 0.248519
20366 9 0.261254 0.09303 0.243976
20016 5 0.252581 0.0172132 0.196303
17477 1 0.331248 0.110933 0.192742
17458 1 0.323491 0.0466537 0.19446
20095 5 0.255887 0.0788624 0.195263
17464 5 0.352652 0.0823392 0.194418
20013 2 0.27882 0.0844724 0.199639
20379 9 0.29058 0.0682433 0.21338
20089 4 0.28285 0.109988 0.198443
20019 3 0.281721 0.079823 0.211853
20378 9 0.268009 0.0301027 0.212426
17466 6 0.321823 0.0542237 0.214252
17493 7 0.315159 0.0512964 0.221355
17494 7 0.337276 0.0608 0.216513
17473 7 0.341083 0.104854 0.216982
14960 7 0.364035 0.085557 0.222177
17548 7 0.293174 0.105129 0.218924
14918 6 0.350122 0.0842951 0.226237
14959 7 0.353882 0.0850745 0.233856
17469 5 0.351027 0.0125616 0.196877
17456 7 0.292049 0.0383647 0.245011
17457 7 0.292436 0.0628086 0.244471
20014 3 0.280106 0.0211685 0.210035
20012 2 0.275749 0.00815347 0.199475
17503 6 0.302109 0.0506386 0.246486
17499 3 0.366613 0.075816 0.246221
17582 7 0.310189 0.10867 0.237018
17508 6 0.335594 0.11843 0.213097
17578 6 0.292771 0.119227 0.222631
20101 7 0.269777 0.109979 0.23048
17472 7 0.322682 0.121771 0.217899
17544 6 0.316815 0.107479 0.243734
17583 7 0.328651 0.0970337 0.241764
20365 9 0.273426 0.00549096 0.244206
17463 4 0.373029 0.0462856 0.197414
17460 2 0.374924 0.0713167 0.19775
17386 2 0.373606 0.0218581 0.200503
17512 7 0.281681 0.00442059 0.226408
17813 9 0.378036 0.088688 0.246285
14840 5 0.495406 0.0737454 0.19503
17465 5 0.392463 0.0768329 0.189643
17462 3 0.381351 0.080932 0.209034
17391 3 0.376936 0.0178329 0.212709
14906 1 0.425308 0.107507 0.191036
17392 5 0.393342 0.0125427 0.193738
17826 9 0.391481 0.0713053 0.212687
14849 1 0.42747 0.0474407 0.195686
14917 5 0.45426 0.073963 0.196168
14837 5 0.450305 0.0160445 0.198466
14911 4 0.473104 0.107874 0.196916
14834 2 0.474895 0.0842228 0.200546
14839 3 0.473338 0.0838547 0.213408
14955 6 0.41183 0.0470058 0.215404
15273 9 0.474649 0.0984091 0.216185
14922 7 0.421008 0.0457259 0.221831
14923 7 0.397603 0.0389595 0.217284
15308 7 0.465438 0.0607276 0.22488
14884 6 0.455087 0.0495834 0.228204
15297 7 0.457117 0.0346849 0.223637
15303 9 0.403702 0.0522041 0.242768
14868 8 0.446344 0.0469252 0.242972
14835 3 0.479519 0.0152248 0.213357
14874 3 0.416268 0.0452904 0.246798
14833 2 0.472961 0.00782768 0.20196
12328 7 0.446242 0.0999275 0.230189
14951 6 0.402399 0.108877 0.246661
14942 7 0.424436 0.112808 0.219333
12291 6 0.436994 0.110439 0.232947
14914 6 0.418684 0.113246 0.212077
14904 7 0.412444 0.107077 0.240008
12366 6 0.481523 0.12062 0.229127
12408 7 0.47817 0.127268 0.236296
12329 7 0.447155 0.122228 0.235177
14905 7 0.393018 0.12158 0.245081
14941 7 0.404924 0.120962 0.212481
14838 5 0.491121 0.0150734 0.194683
12407 7 0.477464 0.132107 0.224127
17825 9 0.387194 0.00604024 0.213879
15272 9 0.483338 0.00296126 0.217824
25304 4 0.0617376 0.196151 0.249876
22791 6 0.0642739 0.234884 0.230729
25267 5 0.095625 0.200371 0.196588
25265 5 0.0934289 0.139818 0.193989
25348 7 0.0261347 0.171184 0.224124
25347 7 0.0031565 0.174059 0.219446
25512 9 0.011662 0.185053 0.239337
25303 3 0.0225921 0.177759 0.244842
25260 2 0.0768357 0.132099 0.203108
25264 5 0.0543947 0.141558 0.200889
25332 1 0.0233828 0.231553 0.198828
25276 1 0.0302604 0.170953 0.19955
25342 5 0.0546894 0.202801 0.201553
25337 4 0.0785863 0.234601 0.203897
25261 2 0.0778807 0.209144 0.204179
25266 3 0.0830137 0.20152 0.216303
25262 3 0.0844106 0.135751 0.214634
25485 9 0.0827752 0.214362 0.220516
22720 7 0.112216 0.179101 0.216816
25377 6 0.0189487 0.177368 0.217634
25507 7 0.0728443 0.176001 0.224858
25518 7 0.0638123 0.151089 0.224273
25314 6 0.0590512 0.165489 0.227528
25297 8 0.0531162 0.172977 0.242709
22757 7 0.0958074 0.155102 0.245052
22718 6 0.108677 0.164933 0.246872
25378 6 0.0247503 0.233307 0.219463
22830 7 0.0651988 0.221187 0.234761
25345 7 0.0385487 0.234109 0.223416
25346 7 0.0169727 0.219767 0.222154
22795 7 0.105144 0.240352 0.216117
22796 7 0.114566 0.218003 0.216215
22751 3 0.123012 0.234139 0.244573
25343 6 0.002685 0.234068 0.242113
25381 7 0.00834477 0.232691 0.234507
22829 7 0.0655645 0.24544 0.237034
22960 9 0.113036 0.232932 0.23805
22825 6 0.118927 0.233092 0.217544
22706 1 0.126066 0.169513 0.194607
22758 7 0.120344 0.163046 0.241506
22756 6 0.127319 0.175616 0.214992
22955 7 0.157147 0.24131 0.221693
22954 7 0.194886 0.133485 0.229327
22646 5 0.196216 0.139369 0.18929
22713 5 0.193529 0.202913 0.190584
20103 1 0.228931 0.171914 0.19172
22716 5 0.155978 0.137452 0.194352
14952 3 0.46509 0.197004 0.247549
20208 7 0.202512 0.242157 0.238926
22719 7 0.135367 0.177746 0.222031
20154 1 0.225471 0.233687 0.192539
22724 1 0.129401 0.232149 0.197195
22722 7 0.148696 0.182652 0.241191
22645 4 0.182642 0.137473 0.208418
22712 5 0.154434 0.204052 0.196153
22639 2 0.177896 0.146735 0.197592
22708 2 0.176864 0.196754 0.199444
22711 4 0.177245 0.17139 0.199302
22710 3 0.183674 0.202655 0.210789
22932 9 0.183289 0.189056 0.215849
20167 7 0.208482 0.218955 0.213506
20204 6 0.218391 0.231559 0.213055
20092 3 0.23584 0.171995 0.210251
22721 7 0.154698 0.160365 0.239523
20406 9 0.223823 0.174039 0.215966
22966 7 0.175055 0.220989 0.225673
22745 8 0.155515 0.235923 0.242403
20166 6 0.192141 0.169261 0.223823
20206 7 0.178841 0.172702 0.22859
22755 6 0.145801 0.171709 0.235595
20205 7 0.188486 0.157107 0.218888
22762 6 0.168255 0.237268 0.228255
20165 6 0.213092 0.23595 0.243866
20168 7 0.209387 0.244292 0.213368
20169 7 0.24605 0.231938 0.232758
22679 3 0.166317 0.132708 0.248991
20123 3 0.267522 0.146611 0.247218
20203 6 0.25797 0.221817 0.230071
17827 9 0.365555 0.141062 0.213795
17549 7 0.282904 0.129548 0.217789
17651 6 0.295668 0.24262 0.223932
20094 5 0.296239 0.201843 0.188088
20090 5 0.254149 0.133385 0.191599
17854 9 0.321949 0.244657 0.212547
17531 1 0.323218 0.171661 0.190771
17551 1 0.330821 0.235049 0.189869
20170 7 0.253031 0.215468 0.223922
17538 5 0.353846 0.200733 0.189834
17545 6 0.324412 0.237518 0.243426
20164 5 0.254726 0.207219 0.191439
20368 9 0.268503 0.203141 0.241976
17543 5 0.356064 0.140754 0.194511
20085 2 0.277164 0.133433 0.195474
20086 8 0.26715 0.17066 0.213056
20087 2 0.278031 0.209602 0.195819
20159 4 0.279902 0.235159 0.198573
20088 5 0.273011 0.147133 0.205315
20093 4 0.276714 0.192701 0.205105
17547 7 0.335677 0.154782 0.213659
17540 3 0.334115 0.236378 0.209191
17579 6 0.327826 0.167544 0.211435
17546 7 0.319098 0.169779 0.218206
20136 6 0.284748 0.168885 0.226216
20413 7 0.278155 0.178124 0.232786
20402 7 0.287069 0.152776 0.229105
20127 3 0.270314 0.194961 0.248426
17580 7 0.339058 0.230291 0.243518
17617 7 0.281273 0.236276 0.225818
17534 8 0.364275 0.23343 0.212659
17571 3 0.365512 0.205181 0.246828
17815 9 0.367693 0.191837 0.242179
17618 7 0.306467 0.234165 0.227775
17504 3 0.367247 0.136871 0.248457
17850 7 0.371093 0.220575 0.231837
17814 9 0.370442 0.147948 0.243015
17536 5 0.372926 0.211166 0.203721
20367 9 0.27007 0.162244 0.247116
14992 6 0.404549 0.227716 0.245743
15274 9 0.491767 0.150001 0.210839
14994 7 0.425548 0.236736 0.218489
14913 5 0.49544 0.139752 0.191613
14956 6 0.429027 0.166626 0.212687
17539 5 0.394053 0.204455 0.187006
15027 6 0.42573 0.238227 0.211099
14915 3 0.480449 0.194589 0.208307
14921 7 0.442164 0.157192 0.213506
14958 7 0.431656 0.161785 0.243781
15031 7 0.39714 0.214393 0.244139
14996 7 0.378184 0.162559 0.226323
15026 6 0.376367 0.169149 0.233052
14909 2 0.476654 0.207644 0.197731
14947 3 0.463912 0.144952 0.247075
14919 6 0.420113 0.172576 0.244602
14912 5 0.453418 0.143243 0.193521
14908 2 0.475173 0.133441 0.198129
14925 1 0.430361 0.17225 0.191708
14985 4 0.479422 0.233717 0.198996
15261 9 0.466728 0.160465 0.247972
17537 4 0.379285 0.172245 0.196978
17584 6 0.375326 0.235163 0.226762
14916 5 0.495553 0.200482 0.190216
15262 9 0.465659 0.208033 0.241985
17467 3 0.380456 0.141762 0.21107
14997 7 0.39253 0.172529 0.235652
17461 2 0.379164 0.146975 0.198419
14957 7 0.428579 0.185884 0.245431
14991 5 0.454312 0.200685 0.1934
17468 5 0.398643 0.136883 0.192405
14979 1 0.424425 0.232918 0.190037
14920 7 0.418777 0.157573 0.21753
12353 7 0.491744 0.182703 0.244452
14910 3 0.477721 0.141303 0.210133
17533 2 0.376153 0.196357 0.194429
15275 9 0.469536 0.183337 0.208928
20207 7 0.225252 0.246794 0.24399
22670 7 0.219098 -0.000486828 0.152863
14826 6 0.491939 0.0025602 0.154506
25178 3 0.0292978 0.0520414 0.306824
25245 3 0.0282189 0.106245 0.306437
25251 5 0.0198444 0.0463978 0.287085
25246 4 0.0335605 0.0801319 0.292413
25243 2 0.0340608 0.105024 0.294332
25224 1 0.0875743 0.0812332 0.288811
25179 5 0.0596201 0.0467174 0.292115
25173 2 0.036046 0.055483 0.294916
25170 1 0.0817558 0.0167711 0.290473
25232 5 0.0811523 0.0788647 0.267603
25230 5 0.0792337 0.016428 0.272738
22671 1 0.108899 0.0518848 0.267426
25171 1 0.0154953 0.0477611 0.266516
25229 5 0.0397208 0.020555 0.265184
25294 1 0.0106979 0.1098 0.265518
25306 5 0.0410685 0.079166 0.265019
25226 2 0.0628289 0.0862402 0.260443
25225 2 0.0634436 0.0127984 0.26277
25496 9 0.0417943 0.052496 0.311783
25288 6 0.089709 0.0838148 0.309225
25218 6 0.0892379 0.0203507 0.311678
25497 9 0.0322481 0.0934109 0.310721
22619 1 0.115423 0.112044 0.266555
25300 4 0.0636154 0.111827 0.260966
25257 7 0.101016 0.0944985 0.310168
25247 5 0.0165308 0.112844 0.286614
25248 5 0.0566826 0.112862 0.291743
22699 5 0.116617 0.110266 0.287408
22624 5 0.117115 0.0509911 0.2875
25227 3 0.0748809 0.029423 0.25489
25256 7 0.100968 0.0719998 0.308362
1931 7 0.00223672 0.0360912 0.308697
25471 9 0.06576 0.0423832 0.254153
1930 7 0.00753918 0.0112823 0.308034
25184 7 0.105267 0.0233043 0.31019
22626 3 0.12976 0.116407 0.307449
22622 3 0.125393 0.0515417 0.307351
22623 4 0.132879 0.018287 0.296883
22681 5 0.138672 0.0203289 0.263179
22620 2 0.13399 0.044392 0.295963
19999 4 0.226177 0.0405499 0.304174
19993 2 0.234891 0.0575811 0.296088
20068 2 0.2365 0.107579 0.296907
20071 4 0.230446 0.0823205 0.299516
22625 5 0.156557 0.0522203 0.292095
22627 5 0.158311 0.109689 0.292697
22618 1 0.181803 0.0814067 0.288763
20076 5 0.218712 0.0551141 0.286485
22600 1 0.187884 0.0210716 0.290554
22609 5 0.178221 0.0214187 0.271933
22678 5 0.179151 0.0842722 0.269937
19990 1 0.216181 0.0500078 0.267612
22677 5 0.139554 0.07931 0.263825
20129 5 0.2409 0.0818681 0.265282
20053 5 0.239746 0.0164181 0.264011
22602 2 0.162521 0.0262877 0.262812
22673 2 0.163903 0.0763224 0.26106
22676 4 0.166226 0.0513294 0.261313
19998 3 0.188314 0.0163919 0.309762
19992 8 0.219337 0.0171748 0.311992
20119 1 0.212756 0.113377 0.268548
20072 5 0.217194 0.113019 0.288642
22621 2 0.13475 0.119017 0.294711
20070 3 0.234008 0.119977 0.308025
22608 3 0.173183 0.014805 0.253449
22943 9 0.137976 0.0561145 0.311447
20000 5 0.25855 0.0499579 0.293599
17448 5 0.358286 0.110498 0.288384
17440 8 0.323733 0.0806951 0.308867
17446 3 0.293026 0.0763962 0.309073
17442 5 0.329623 0.0577027 0.300321
17447 4 0.327577 0.102393 0.300688
17443 4 0.333393 0.0180881 0.294875
17439 2 0.334149 0.0420844 0.291605
20048 1 0.289675 0.0814676 0.289827
19989 1 0.28067 0.0188559 0.28888
17445 5 0.357811 0.0481949 0.287749
17444 5 0.315214 0.0477177 0.284346
20057 5 0.281573 0.0812105 0.268818
17495 1 0.308016 0.05003 0.266394
17506 5 0.338985 0.0147555 0.267371
20054 5 0.280551 0.0200039 0.267377
17438 1 0.317169 0.112395 0.264142
17501 5 0.338645 0.0784474 0.261175
17421 2 0.359914 0.0207747 0.261799
20050 2 0.263468 0.0889629 0.260888
20049 2 0.262502 0.0110384 0.25997
17497 2 0.361768 0.0709944 0.258086
20040 6 0.292766 0.0229168 0.308615
17500 4 0.36161 0.0454823 0.259988
20073 5 0.259369 0.111004 0.291417
20124 4 0.262846 0.113857 0.259818
17524 5 0.318806 0.113453 0.282423
17441 2 0.334882 0.117821 0.291506
20005 7 0.307879 0.017752 0.306493
11655 7 0.497502 0.0340983 0.398437
17427 4 0.35428 0.00469537 0.253255
17502 5 0.378892 0.0809781 0.265683
17428 5 0.380705 0.0132739 0.268521
17437 1 0.382217 0.0786265 0.286545
15286 9 0.436344 0.031605 0.306489
14822 3 0.427788 0.0441368 0.305438
14891 4 0.432767 0.0798134 0.297082
14817 2 0.434668 0.0549825 0.294265
14887 2 0.433078 0.10467 0.292434
14823 5 0.456581 0.0472267 0.289619
17418 1 0.386721 0.0147007 0.288933
14893 5 0.45703 0.110207 0.289268
14897 5 0.416005 0.0497129 0.286073
14892 5 0.415324 0.108588 0.283933
14866 1 0.486657 0.0786307 0.287289
14814 1 0.48157 0.0182892 0.286033
14873 5 0.479018 0.0167961 0.267046
14876 5 0.482108 0.077393 0.266014
14815 1 0.412659 0.0449915 0.266036
14943 1 0.409274 0.108686 0.266949
14954 5 0.43894 0.0784511 0.265452
17412 6 0.392847 0.00920996 0.309178
14869 2 0.460942 0.0851295 0.259748
14872 5 0.437014 0.00877096 0.265588
14867 2 0.459352 0.0086496 0.260308
14948 4 0.461607 0.109821 0.258015
14860 6 0.48888 0.0761037 0.307659
14890 5 0.426211 0.121941 0.300881
17380 7 0.405466 -0.00185421 0.307862
17379 7 0.400836 0.0229761 0.310264
20409 9 0.180732 -6.87388e-05 0.311007
14901 7 0.466445 0.125365 0.302202
25254 7 0.0739872 0.122023 0.311146
25296 2 0.0636183 0.136775 0.261178
25241 1 0.0821277 0.143292 0.290317
25249 3 0.0274071 0.176443 0.304559
25360 6 0.0850819 0.193317 0.305307
25320 4 0.0301194 0.207605 0.292479
25317 2 0.0343207 0.231792 0.289927
25295 1 0.0878595 0.205226 0.285349
25250 5 0.0573821 0.174566 0.290663
25244 2 0.033666 0.182609 0.29291
25325 5 0.0189018 0.174387 0.283882
25302 5 0.0816672 0.145441 0.268193
25305 5 0.0823196 0.206583 0.265945
22742 1 0.110887 0.172372 0.266359
25301 5 0.0395364 0.143803 0.264008
25242 1 0.0157913 0.174342 0.263898
25376 5 0.040482 0.209154 0.263123
25298 2 0.0639023 0.213166 0.25854
25289 6 0.0845586 0.135039 0.309782
25366 1 0.00861992 0.23511 0.261885
25498 9 0.0209224 0.188838 0.308547
25371 4 0.0645717 0.237659 0.255192
22690 1 0.114045 0.23697 0.263007
22773 5 0.117617 0.236961 0.283311
25322 5 0.0587268 0.234982 0.287781
25255 7 0.0987558 0.127418 0.308904
25321 5 0.0160343 0.238134 0.281958
22695 5 0.113994 0.175698 0.286873
25319 3 0.0270383 0.244312 0.300649
25499 9 0.021496 0.234695 0.305703
25330 7 0.0711447 0.185912 0.305248
25299 5 0.0619765 0.149607 0.250375
25331 7 0.0958358 0.183075 0.307814
22944 9 0.12449 0.131302 0.309776
22697 3 0.126996 0.241669 0.302875
22693 3 0.123975 0.168565 0.307321
22945 9 0.133136 0.177528 0.311632
22694 4 0.133978 0.144044 0.291938
22691 2 0.132028 0.168504 0.295118
22748 4 0.167397 0.171549 0.257117
22674 2 0.163868 0.146356 0.260235
22754 5 0.141576 0.140446 0.264336
20202 5 0.239423 0.202543 0.26201
22672 1 0.186568 0.143601 0.289344
20142 4 0.238462 0.205872 0.291686
20147 5 0.218239 0.171107 0.286673
22696 5 0.155628 0.177116 0.292812
20074 3 0.232561 0.177182 0.306475
20069 2 0.236078 0.181109 0.294253
22689 1 0.181591 0.206306 0.289553
20392 9 0.223871 0.164164 0.30763
20139 2 0.236841 0.231059 0.29363
20067 1 0.214793 0.175916 0.266784
22680 5 0.181721 0.141373 0.269164
22750 5 0.179663 0.203145 0.268755
22749 5 0.139543 0.196914 0.264105
20125 5 0.240535 0.14642 0.263844
22744 2 0.163844 0.195491 0.260176
22737 6 0.191195 0.217383 0.309141
22736 6 0.194741 0.146821 0.309611
20393 9 0.249893 0.224185 0.308899
22698 5 0.158662 0.232822 0.290352
20190 1 0.208634 0.235387 0.265332
20141 3 0.23735 0.232844 0.306168
20143 5 0.215746 0.239166 0.287781
22703 7 0.206719 0.217445 0.308487
22692 2 0.135847 0.242558 0.291306
22704 7 0.209187 0.138184 0.309496
22702 7 0.188008 0.232655 0.309857
22952 7 0.134529 0.214918 0.310553
22747 5 0.161563 0.213109 0.250735
22946 9 0.133534 0.25418 0.30728
20081 7 0.263307 0.134029 0.307988
20144 5 0.258433 0.240289 0.288554
17572 4 0.365672 0.172915 0.259642
20126 5 0.282215 0.147838 0.266218
20075 5 0.259489 0.172661 0.292246
20066 1 0.285576 0.141621 0.287121
17516 2 0.337007 0.168135 0.293994
17518 3 0.332934 0.177295 0.306002
20079 7 0.307303 0.195825 0.310129
20114 6 0.294238 0.20441 0.307739
17519 4 0.33795 0.141975 0.295307
17521 5 0.359845 0.176099 0.290561
20120 1 0.287176 0.203472 0.287447
17520 5 0.319364 0.173899 0.285837
17595 5 0.316294 0.23241 0.284751
17567 1 0.311189 0.173915 0.26614
20128 5 0.280445 0.203358 0.267327
17577 5 0.342228 0.142605 0.264226
17573 5 0.339844 0.203858 0.261757
17498 2 0.364346 0.148096 0.25979
20121 2 0.263272 0.139181 0.258961
17569 2 0.363888 0.198478 0.258728
20122 2 0.26326 0.207519 0.25845
20196 4 0.265402 0.233764 0.257574
20113 6 0.276235 0.144561 0.307661
17839 9 0.339251 0.166699 0.310713
17523 5 0.357485 0.233984 0.288264
17515 1 0.313916 0.235981 0.263799
17522 3 0.332101 0.240813 0.304314
17517 2 0.334123 0.242036 0.291807
17840 9 0.321427 0.230054 0.306386
17529 7 0.36698 0.19687 0.310018
20082 7 0.267573 0.158552 0.306984
17561 6 0.380765 0.203425 0.308627
15020 4 0.464954 0.233441 0.258176
17505 5 0.381685 0.13959 0.267357
17574 5 0.38215 0.208554 0.265886
17514 1 0.382708 0.206259 0.287391
14945 2 0.459102 0.134724 0.25838
14886 1 0.414835 0.173993 0.265449
14894 3 0.391532 0.145285 0.308305
14972 5 0.415951 0.177563 0.282212
14896 5 0.458074 0.175712 0.287717
14888 8 0.421275 0.145657 0.308601
12342 3 0.491528 0.20426 0.306362
14895 4 0.428681 0.166753 0.300001
14964 2 0.436112 0.230711 0.293985
14967 4 0.434438 0.205245 0.294561
14889 2 0.434548 0.18111 0.290377
17496 1 0.389236 0.143217 0.287945
14944 1 0.488298 0.205057 0.28718
14885 1 0.482341 0.140658 0.287434
14953 5 0.48143 0.199064 0.266517
14936 6 0.477378 0.132041 0.306921
14950 5 0.476619 0.142716 0.266826
15025 5 0.440679 0.203014 0.262843
14949 5 0.436563 0.143435 0.262308
14946 2 0.463536 0.208452 0.258721
14969 5 0.458614 0.236118 0.289566
15015 1 0.412269 0.236215 0.265765
14968 5 0.417578 0.239465 0.286622
14966 3 0.4352 0.241324 0.305328
15305 9 0.378362 0.146503 0.313634
15287 9 0.425159 0.253145 0.305175
14900 7 0.468437 0.131587 0.313334
25183 7 0.0855068 0.0304357 0.317087
24544 6 0.0937839 0.0291418 0.337476
24654 7 0.110262 0.0880836 0.333159
24655 7 0.0877284 0.0814657 0.328019
24614 6 0.0959582 0.0795991 0.334553
24820 9 0.0325266 0.0485026 0.337196
24550 1 0.0913445 0.0809136 0.355167
24571 2 0.0365846 0.0563248 0.35334
24576 3 0.0285052 0.0413846 0.343378
24577 5 0.0607085 0.0502499 0.35542
24639 2 0.0361069 0.106184 0.350394
24643 4 0.0343278 0.0808366 0.349437
24644 5 0.020529 0.11203 0.359616
24645 5 0.0600086 0.112114 0.352208
24649 5 0.0205974 0.0513104 0.362408
24568 1 0.088558 0.0193147 0.35677
22022 5 0.123701 0.0536742 0.357506
22097 5 0.12367 0.110925 0.356042
24582 7 0.104967 0.0412973 0.336274
24581 7 0.0932969 0.0215041 0.330833
24642 5 0.0286159 0.121577 0.34205
24819 9 0.0269101 0.00739141 0.341385
14870 5 0.455799 0.0242994 0.250546
22266 9 0.138642 0.00703308 0.33574
20415 7 0.238948 0.00268996 0.329082
20391 9 0.23365 0.10937 0.313589
22267 9 0.136783 0.0638744 0.337373
22268 9 0.152058 0.0971191 0.334842
22665 6 0.168452 0.0542207 0.321169
22634 7 0.158066 0.0489396 0.326476
22020 3 0.137404 0.0489254 0.339111
22024 3 0.136527 0.101522 0.337675
22032 7 0.207831 0.0277895 0.337815
22021 4 0.141049 0.0206396 0.353838
20065 6 0.240418 0.0167612 0.324225
22631 7 0.187279 0.0737479 0.328498
22632 7 0.206568 0.0881235 0.332634
19714 9 0.224884 0.0641015 0.336555
22666 6 0.19231 0.0833507 0.334711
19468 3 0.234261 0.107156 0.335554
19398 3 0.227624 0.0510962 0.341053
19466 2 0.240134 0.107868 0.347848
19469 4 0.241219 0.0838727 0.35114
19393 2 0.239225 0.0586384 0.351748
19470 5 0.221446 0.119104 0.354559
19474 5 0.223923 0.0512101 0.360776
22016 1 0.189692 0.0839907 0.355388
22018 2 0.143275 0.0450359 0.351136
22023 5 0.165356 0.0538454 0.354702
22025 5 0.163112 0.112548 0.351906
21925 1 0.192515 0.0184303 0.358986
21991 6 0.197831 0.0147064 0.33881
22019 2 0.140316 0.117175 0.347263
22633 7 0.178644 0.0414062 0.320886
20416 7 0.239515 0.0300698 0.329447